LAMMPS data file generated by OpenBabel
344 atoms
559 bonds
1655 angles
4055 dihedrals
0 impropers
3 atom types
2 bond types
2 angle types
2 dihedral types
0 improper types
  -5.06200   28.64400 xlo xhi
  -5.06200   28.64400 ylo yhi
  -5.06200   28.64400 zlo zhi



Masses

1 6.941 # Li
2 15.9994 # O
3 47.867 # Ti


Atoms

1       1    3    0.00000    0.00000    0.00000    0.00000 #  Ti
2       1    2   -0.82000    0.00000    1.89200    0.39900 #   O
3       1    3    0.00000    0.00000    3.78500    0.00000 #  Ti
4       1    2   -0.82000    0.00000    5.67700    0.39900 #   O
5       1    3    0.00000    0.00000    7.56900    0.00000 #  Ti
6       1    2   -0.82000    0.00000    9.46100    0.39900 #   O
7       1    3    0.00000    0.00000    9.46100    2.37900 #  Ti
8       1    2   -0.82000    1.89200    9.46100    2.77800 #   O
9       1    3    0.00000    3.78500    9.46100    2.37900 #  Ti
10      1    2   -0.82000    5.67700    9.46100    2.77800 #   O
11      1    3    0.00000    7.56900    9.46100    2.37900 #  Ti
12      1    2   -0.82000    9.46100    9.46100    2.77800 #   O
13      1    3    0.00000    9.46100    9.46100    4.75700 #  Ti
14      1    2   -0.82000    9.46100    9.46100    6.73700 #   O
15      1    3    0.00000    9.46100    7.56900    7.13600 #  Ti
16      1    2   -0.82000    9.46100    7.56900    9.11500 #   O
17      1    3    0.00000    7.56900    7.56900    9.51400 #  Ti
18      1    2   -0.82000    7.56900    9.46100    9.91300 #   O
19      1    3    0.00000    7.56900    9.46100   11.89300 #  Ti
20      1    2   -0.82000    9.46100    9.46100   12.29200 #   O
21      1    3    0.00000    9.46100    9.46100   14.27100 #  Ti
22      1    2   -0.82000    9.46100    9.46100   16.25100 #   O
23      1    3    0.00000    9.46100    7.56900   16.65000 #  Ti
24      1    2   -0.82000    9.46100    7.56900   18.63000 #   O
25      1    3    0.00000    7.56900    7.56900   19.02900 #  Ti
26      1    2   -0.82000    7.56900    9.46100   19.42800 #   O
27      1    3    0.00000    7.56900    9.46100   21.40700 #  Ti
28      1    2   -0.82000    9.46100    9.46100   21.80600 #   O
29      1    3    0.00000    9.46100    9.46100   23.78600 #  Ti
30      1    2   -0.82000    9.46100    9.46100   25.76500 #   O
31      1    3    0.00000    9.46100    7.56900   26.16400 #  Ti
32      1    2   -0.82000    9.46100    7.56900   28.14400 #   O
33      1    2   -0.82000    7.56900    7.56900   26.56300 #   O
34      1    3    0.00000    5.67700    7.56900   26.16400 #  Ti
35      1    2   -0.82000    5.67700    9.46100   25.76500 #   O
36      1    3    0.00000    5.67700    9.46100   23.78600 #  Ti
37      1    2   -0.82000    3.78500    9.46100   23.38700 #   O
38      1    3    0.00000    3.78500    9.46100   21.40700 #  Ti
39      1    2   -0.82000    3.78500    9.46100   19.42800 #   O
40      1    3    0.00000    3.78500    7.56900   19.02900 #  Ti
41      1    2   -0.82000    3.78500    7.56900   17.04900 #   O
42      1    3    0.00000    5.67700    7.56900   16.65000 #  Ti
43      1    2   -0.82000    5.67700    9.46100   16.25100 #   O
44      1    3    0.00000    5.67700    9.46100   14.27100 #  Ti
45      1    2   -0.82000    3.78500    9.46100   13.87200 #   O
46      1    3    0.00000    3.78500    9.46100   11.89300 #  Ti
47      1    2   -0.82000    3.78500    9.46100    9.91300 #   O
48      1    3    0.00000    3.78500    7.56900    9.51400 #  Ti
49      1    2   -0.82000    3.78500    7.56900    7.53500 #   O
50      1    3    0.00000    5.67700    7.56900    7.13600 #  Ti
51      1    2   -0.82000    5.67700    9.46100    6.73700 #   O
52      1    2   -0.82000    5.67700    7.56900    5.15600 #   O
53      1    3    0.00000    5.67700    5.67700    4.75700 #  Ti
54      1    2   -0.82000    7.56900    5.67700    4.35800 #   O
55      1    3    0.00000    7.56900    5.67700    2.37900 #  Ti
56      1    2   -0.82000    9.46100    5.67700    2.77800 #   O
57      1    2   -0.82000    7.56900    5.67700    0.39900 #   O
58      1    3    0.00000    7.56900    7.56900    0.00000 #  Ti
59      1    3    0.00000    7.56900    3.78500    0.00000 #  Ti
60      1    2   -0.82000    7.56900    1.89200    0.39900 #   O
61      1    3    0.00000    7.56900    1.89200    2.37900 #  Ti
62      1    2   -0.82000    9.46100    1.89200    2.77800 #   O
63      1    3    0.00000    9.46100    1.89200    4.75700 #  Ti
64      1    2   -0.82000    9.46100    3.78500    5.15600 #   O
65      1    3    0.00000    9.46100    3.78500    7.13600 #  Ti
66      1    2   -0.82000    9.46100    3.78500    9.11500 #   O
67      1    3    0.00000    7.56900    3.78500    9.51400 #  Ti
68      1    2   -0.82000    7.56900    3.78500   11.49400 #   O
69      1    3    0.00000    7.56900    5.67700   11.89300 #  Ti
70      1    2   -0.82000    9.46100    5.67700   12.29200 #   O
71      1    3    0.00000    9.46100    5.67700   14.27100 #  Ti
72      1    2   -0.82000    9.46100    3.78500   14.67000 #   O
73      1    3    0.00000    9.46100    3.78500   16.65000 #  Ti
74      1    2   -0.82000    9.46100    3.78500   18.63000 #   O
75      1    3    0.00000    7.56900    3.78500   19.02900 #  Ti
76      1    2   -0.82000    7.56900    3.78500   21.00800 #   O
77      1    3    0.00000    7.56900    5.67700   21.40700 #  Ti
78      1    2   -0.82000    9.46100    5.67700   21.80600 #   O
79      1    3    0.00000    9.46100    5.67700   23.78600 #  Ti
80      1    2   -0.82000    9.46100    3.78500   24.18500 #   O
81      1    3    0.00000    9.46100    3.78500   26.16400 #  Ti
82      1    2   -0.82000    9.46100    3.78500   28.14400 #   O
83      1    2   -0.82000    7.56900    3.78500   26.56300 #   O
84      1    3    0.00000    5.67700    3.78500   26.16400 #  Ti
85      1    2   -0.82000    5.67700    3.78500   28.14400 #   O
86      1    2   -0.82000    5.67700    3.78500   24.18500 #   O
87      1    3    0.00000    5.67700    5.67700   23.78600 #  Ti
88      1    2   -0.82000    3.78500    5.67700   23.38700 #   O
89      1    3    0.00000    3.78500    5.67700   21.40700 #  Ti
90      1    2   -0.82000    3.78500    3.78500   21.00800 #   O
91      1    3    0.00000    3.78500    3.78500   19.02900 #  Ti
92      1    2   -0.82000    3.78500    3.78500   17.04900 #   O
93      1    3    0.00000    5.67700    3.78500   16.65000 #  Ti
94      1    2   -0.82000    5.67700    3.78500   14.67000 #   O
95      1    3    0.00000    5.67700    5.67700   14.27100 #  Ti
96      1    2   -0.82000    3.78500    5.67700   13.87200 #   O
97      1    3    0.00000    3.78500    5.67700   11.89300 #  Ti
98      1    2   -0.82000    3.78500    3.78500   11.49400 #   O
99      1    3    0.00000    3.78500    3.78500    9.51400 #  Ti
100     1    2   -0.82000    3.78500    3.78500    7.53500 #   O
101     1    3    0.00000    5.67700    3.78500    7.13600 #  Ti
102     1    2   -0.82000    5.67700    1.89200    6.73700 #   O
103     1    3    0.00000    5.67700    0.00000    7.13600 #  Ti
104     1    2   -0.82000    7.56900    0.00000    7.53500 #   O
105     1    3    0.00000    7.56900    0.00000    9.51400 #  Ti
106     1    2   -0.82000    7.56900    0.00000   11.49400 #   O
107     1    2   -0.82000    9.46100    0.00000    9.11500 #   O
108     1    3    0.00000    9.46100    0.00000    7.13600 #  Ti
109     1    2   -0.82000    5.67700    0.00000    9.11500 #   O
110     1    3    0.00000    3.78500    0.00000    9.51400 #  Ti
111     1    2   -0.82000    3.78500    0.00000   11.49400 #   O
112     1    2   -0.82000    1.89200    0.00000    9.11500 #   O
113     1    3    0.00000    0.00000    0.00000    9.51400 #  Ti
114     1    2   -0.82000    0.00000    0.00000   11.49400 #   O
115     1    3    0.00000    0.00000    1.89200   11.89300 #  Ti
116     1    2   -0.82000    0.00000    3.78500   11.49400 #   O
117     1    3    0.00000    0.00000    5.67700   11.89300 #  Ti
118     1    2   -0.82000    0.00000    7.56900   11.49400 #   O
119     1    3    0.00000    0.00000    9.46100   11.89300 #  Ti
120     1    2   -0.82000    0.00000    9.46100   13.87200 #   O
121     1    2   -0.82000    0.00000    9.46100    9.91300 #   O
122     1    3    0.00000    0.00000    7.56900    9.51400 #  Ti
123     1    2   -0.82000    0.00000    7.56900    7.53500 #   O
124     1    2   -0.82000    0.00000    5.67700   13.87200 #   O
125     1    2   -0.82000    0.00000    5.67700    9.91300 #   O
126     1    3    0.00000    0.00000    3.78500    9.51400 #  Ti
127     1    2   -0.82000    0.00000    3.78500    7.53500 #   O
128     1    2   -0.82000    0.00000    1.89200   13.87200 #   O
129     1    3    0.00000    1.89200    1.89200   14.27100 #  Ti
130     1    2   -0.82000    3.78500    1.89200   13.87200 #   O
131     1    2   -0.82000    1.89200    3.78500   14.67000 #   O
132     1    2   -0.82000    1.89200    1.89200   16.25100 #   O
133     1    3    0.00000    1.89200    0.00000   16.65000 #  Ti
134     1    2   -0.82000    3.78500    0.00000   17.04900 #   O
135     1    3    0.00000    3.78500    0.00000   19.02900 #  Ti
136     1    2   -0.82000    3.78500    0.00000   21.00800 #   O
137     1    2   -0.82000    5.67700    0.00000   18.63000 #   O
138     1    3    0.00000    7.56900    0.00000   19.02900 #  Ti
139     1    2   -0.82000    7.56900    0.00000   21.00800 #   O
140     1    2   -0.82000    7.56900    0.00000   17.04900 #   O
141     1    3    0.00000    9.46100    0.00000   16.65000 #  Ti
142     1    2   -0.82000    9.46100    0.00000   14.67000 #   O
143     1    2   -0.82000    9.46100    0.00000   18.63000 #   O
144     1    3    0.00000    5.67700    0.00000   16.65000 #  Ti
145     1    2   -0.82000    5.67700    0.00000   14.67000 #   O
146     1    2   -0.82000    1.89200    0.00000   18.63000 #   O
147     1    3    0.00000    0.00000    0.00000   19.02900 #  Ti
148     1    2   -0.82000    0.00000    0.00000   21.00800 #   O
149     1    3    0.00000    0.00000    1.89200   21.40700 #  Ti
150     1    2   -0.82000    0.00000    3.78500   21.00800 #   O
151     1    3    0.00000    0.00000    5.67700   21.40700 #  Ti
152     1    2   -0.82000    0.00000    7.56900   21.00800 #   O
153     1    3    0.00000    0.00000    9.46100   21.40700 #  Ti
154     1    2   -0.82000    0.00000    9.46100   23.38700 #   O
155     1    2   -0.82000    0.00000    9.46100   19.42800 #   O
156     1    3    0.00000    0.00000    7.56900   19.02900 #  Ti
157     1    2   -0.82000    0.00000    7.56900   17.04900 #   O
158     1    2   -0.82000    0.00000    5.67700   23.38700 #   O
159     1    2   -0.82000    0.00000    5.67700   19.42800 #   O
160     1    3    0.00000    0.00000    3.78500   19.02900 #  Ti
161     1    2   -0.82000    0.00000    3.78500   17.04900 #   O
162     1    2   -0.82000    0.00000    1.89200   23.38700 #   O
163     1    3    0.00000    1.89200    1.89200   23.78600 #  Ti
164     1    2   -0.82000    3.78500    1.89200   23.38700 #   O
165     1    2   -0.82000    1.89200    3.78500   24.18500 #   O
166     1    3    0.00000    1.89200    3.78500   26.16400 #  Ti
167     1    2   -0.82000    1.89200    5.67700   25.76500 #   O
168     1    3    0.00000    1.89200    7.56900   26.16400 #  Ti
169     1    2   -0.82000    1.89200    9.46100   25.76500 #   O
170     1    2   -0.82000    0.00000    7.56900   26.56300 #   O
171     1    2   -0.82000    1.89200    7.56900   28.14400 #   O
172     1    2   -0.82000    1.89200    7.56900   24.18500 #   O
173     1    2   -0.82000    0.00000    3.78500   26.56300 #   O
174     1    2   -0.82000    1.89200    3.78500   28.14400 #   O
175     1    2   -0.82000    1.89200    1.89200   25.76500 #   O
176     1    3    0.00000    1.89200    0.00000   26.16400 #  Ti
177     1    2   -0.82000    3.78500    0.00000   26.56300 #   O
178     1    3    0.00000    5.67700    0.00000   26.16400 #  Ti
179     1    2   -0.82000    7.56900    0.00000   26.56300 #   O
180     1    3    0.00000    9.46100    0.00000   26.16400 #  Ti
181     1    2   -0.82000    9.46100    0.00000   28.14400 #   O
182     1    2   -0.82000    9.46100    0.00000   24.18500 #   O
183     1    2   -0.82000    5.67700    0.00000   28.14400 #   O
184     1    2   -0.82000    5.67700    0.00000   24.18500 #   O
185     1    2   -0.82000    0.00000    0.00000   26.56300 #   O
186     1    2   -0.82000    1.89200    0.00000   28.14400 #   O
187     1    2   -0.82000    1.89200    0.00000   24.18500 #   O
188     1    2   -0.82000    1.89200    1.89200   21.80600 #   O
189     1    2   -0.82000    0.00000    1.89200   19.42800 #   O
190     1    2   -0.82000    0.00000    0.00000   17.04900 #   O
191     1    2   -0.82000    1.89200    0.00000   14.67000 #   O
192     1    2   -0.82000    1.89200    1.89200   12.29200 #   O
193     1    2   -0.82000    0.00000    1.89200    9.91300 #   O
194     1    2   -0.82000    0.00000    0.00000    7.53500 #   O
195     1    3    0.00000    1.89200    0.00000    7.13600 #  Ti
196     1    2   -0.82000    1.89200    1.89200    6.73700 #   O
197     1    3    0.00000    1.89200    1.89200    4.75700 #  Ti
198     1    2   -0.82000    3.78500    1.89200    4.35800 #   O
199     1    3    0.00000    3.78500    1.89200    2.37900 #  Ti
200     1    2   -0.82000    3.78500    3.78500    1.98000 #   O
201     1    3    0.00000    3.78500    5.67700    2.37900 #  Ti
202     1    2   -0.82000    3.78500    5.67700    0.39900 #   O
203     1    3    0.00000    3.78500    7.56900    0.00000 #  Ti
204     1    2   -0.82000    1.89200    5.67700    2.77800 #   O
205     1    3    0.00000    1.89200    5.67700    4.75700 #  Ti
206     1    2   -0.82000    1.89200    7.56900    5.15600 #   O
207     1    2   -0.82000    1.89200    5.67700    6.73700 #   O
208     1    2   -0.82000    0.00000    5.67700    4.35800 #   O
209     1    3    0.00000    3.78500    3.78500    0.00000 #  Ti
210     1    2   -0.82000    3.78500    1.89200    0.39900 #   O
211     1    3    0.00000    3.78500    0.00000    0.00000 #  Ti
212     1    2   -0.82000    3.78500    0.00000    1.98000 #   O
213     1    2   -0.82000    1.89200    3.78500    5.15600 #   O
214     1    2   -0.82000    1.89200    1.89200    2.77800 #   O
215     1    2   -0.82000    0.00000    1.89200    4.35800 #   O
216     1    2   -0.82000    1.89200    0.00000    5.15600 #   O
217     1    2   -0.82000    5.67700    0.00000    5.15600 #   O
218     1    2   -0.82000    3.78500    0.00000    7.53500 #   O
219     1    3    0.00000    5.67700    1.89200    4.75700 #  Ti
220     1    3    0.00000    1.89200    3.78500    7.13600 #  Ti
221     1    2   -0.82000    3.78500    1.89200    9.91300 #   O
222     1    2   -0.82000    1.89200    3.78500    9.11500 #   O
223     1    3    0.00000    3.78500    1.89200   11.89300 #  Ti
224     1    2   -0.82000    5.67700    1.89200   12.29200 #   O
225     1    2   -0.82000    1.89200    5.67700   12.29200 #   O
226     1    3    0.00000    1.89200    5.67700   14.27100 #  Ti
227     1    2   -0.82000    1.89200    7.56900   14.67000 #   O
228     1    2   -0.82000    1.89200    5.67700   16.25100 #   O
229     1    3    0.00000    5.67700    1.89200   14.27100 #  Ti
230     1    2   -0.82000    7.56900    1.89200   13.87200 #   O
231     1    2   -0.82000    5.67700    1.89200   16.25100 #   O
232     1    3    0.00000    1.89200    3.78500   16.65000 #  Ti
233     1    2   -0.82000    3.78500    1.89200   19.42800 #   O
234     1    2   -0.82000    1.89200    3.78500   18.63000 #   O
235     1    3    0.00000    3.78500    1.89200   21.40700 #  Ti
236     1    2   -0.82000    5.67700    1.89200   21.80600 #   O
237     1    2   -0.82000    1.89200    5.67700   21.80600 #   O
238     1    3    0.00000    1.89200    5.67700   23.78600 #  Ti
239     1    3    0.00000    5.67700    1.89200   23.78600 #  Ti
240     1    2   -0.82000    7.56900    1.89200   23.38700 #   O
241     1    2   -0.82000    3.78500    3.78500   26.56300 #   O
242     1    2   -0.82000    5.67700    1.89200   25.76500 #   O
243     1    2   -0.82000    9.46100    1.89200   25.76500 #   O
244     1    3    0.00000    9.46100    1.89200   23.78600 #  Ti
245     1    2   -0.82000    9.46100    1.89200   21.80600 #   O
246     1    2   -0.82000    7.56900    5.67700   23.38700 #   O
247     1    2   -0.82000    5.67700    5.67700   21.80600 #   O
248     1    3    0.00000    7.56900    1.89200   21.40700 #  Ti
249     1    2   -0.82000    7.56900    1.89200   19.42800 #   O
250     1    2   -0.82000    5.67700    3.78500   18.63000 #   O
251     1    2   -0.82000    7.56900    3.78500   17.04900 #   O
252     1    2   -0.82000    9.46100    1.89200   16.25100 #   O
253     1    3    0.00000    9.46100    1.89200   14.27100 #  Ti
254     1    2   -0.82000    9.46100    1.89200   12.29200 #   O
255     1    2   -0.82000    7.56900    5.67700   13.87200 #   O
256     1    2   -0.82000    5.67700    5.67700   12.29200 #   O
257     1    3    0.00000    7.56900    1.89200   11.89300 #  Ti
258     1    2   -0.82000    7.56900    1.89200    9.91300 #   O
259     1    2   -0.82000    5.67700    3.78500    9.11500 #   O
260     1    2   -0.82000    7.56900    3.78500    7.53500 #   O
261     1    2   -0.82000    9.46100    1.89200    6.73700 #   O
262     1    2   -0.82000    9.46100    0.00000    5.15600 #   O
263     1    2   -0.82000    7.56900    1.89200    4.35800 #   O
264     1    2   -0.82000    7.56900    0.00000    1.98000 #   O
265     1    2   -0.82000    5.67700    1.89200    2.77800 #   O
266     1    3    0.00000    7.56900    0.00000    0.00000 #  Ti
267     1    2   -0.82000    7.56900    3.78500    1.98000 #   O
268     1    3    0.00000    9.46100    5.67700    4.75700 #  Ti
269     1    2   -0.82000    5.67700    5.67700    2.77800 #   O
270     1    2   -0.82000    5.67700    3.78500    5.15600 #   O
271     1    2   -0.82000    3.78500    5.67700    4.35800 #   O
272     1    2   -0.82000    5.67700    5.67700    6.73700 #   O
273     1    3    0.00000    1.89200    7.56900    7.13600 #  Ti
274     1    2   -0.82000    1.89200    9.46100    6.73700 #   O
275     1    2   -0.82000    3.78500    5.67700    9.91300 #   O
276     1    2   -0.82000    1.89200    7.56900    9.11500 #   O
277     1    2   -0.82000    3.78500    7.56900   11.49400 #   O
278     1    2   -0.82000    1.89200    9.46100   12.29200 #   O
279     1    3    0.00000    1.89200    9.46100   14.27100 #  Ti
280     1    2   -0.82000    1.89200    9.46100   16.25100 #   O
281     1    2   -0.82000    5.67700    7.56900   14.67000 #   O
282     1    2   -0.82000    5.67700    5.67700   16.25100 #   O
283     1    3    0.00000    1.89200    7.56900   16.65000 #  Ti
284     1    2   -0.82000    3.78500    5.67700   19.42800 #   O
285     1    2   -0.82000    1.89200    7.56900   18.63000 #   O
286     1    2   -0.82000    3.78500    7.56900   21.00800 #   O
287     1    2   -0.82000    1.89200    9.46100   21.80600 #   O
288     1    3    0.00000    1.89200    9.46100   23.78600 #  Ti
289     1    2   -0.82000    5.67700    7.56900   28.14400 #   O
290     1    2   -0.82000    5.67700    7.56900   24.18500 #   O
291     1    2   -0.82000    3.78500    7.56900   26.56300 #   O
292     1    2   -0.82000    5.67700    5.67700   25.76500 #   O
293     1    2   -0.82000    9.46100    5.67700   25.76500 #   O
294     1    2   -0.82000    9.46100    7.56900   24.18500 #   O
295     1    2   -0.82000    7.56900    9.46100   23.38700 #   O
296     1    2   -0.82000    5.67700    9.46100   21.80600 #   O
297     1    2   -0.82000    7.56900    7.56900   21.00800 #   O
298     1    2   -0.82000    7.56900    5.67700   19.42800 #   O
299     1    2   -0.82000    5.67700    7.56900   18.63000 #   O
300     1    2   -0.82000    7.56900    7.56900   17.04900 #   O
301     1    2   -0.82000    9.46100    5.67700   16.25100 #   O
302     1    2   -0.82000    9.46100    7.56900   14.67000 #   O
303     1    2   -0.82000    7.56900    9.46100   13.87200 #   O
304     1    2   -0.82000    5.67700    9.46100   12.29200 #   O
305     1    2   -0.82000    7.56900    7.56900   11.49400 #   O
306     1    2   -0.82000    7.56900    5.67700    9.91300 #   O
307     1    2   -0.82000    5.67700    7.56900    9.11500 #   O
308     1    2   -0.82000    7.56900    7.56900    7.53500 #   O
309     1    2   -0.82000    9.46100    5.67700    6.73700 #   O
310     1    2   -0.82000    9.46100    7.56900    5.15600 #   O
311     1    2   -0.82000    7.56900    9.46100    4.35800 #   O
312     1    2   -0.82000    7.56900    9.46100    0.39900 #   O
313     1    2   -0.82000    7.56900    7.56900    1.98000 #   O
314     1    3    0.00000    5.67700    9.46100    4.75700 #  Ti
315     1    2   -0.82000    3.78500    9.46100    4.35800 #   O
316     1    2   -0.82000    3.78500    9.46100    0.39900 #   O
317     1    2   -0.82000    3.78500    7.56900    1.98000 #   O
318     1    3    0.00000    1.89200    9.46100    4.75700 #  Ti
319     1    2   -0.82000    0.00000    9.46100    4.35800 #   O
320     1    2   -0.82000    0.00000    7.56900    1.98000 #   O
321     1    3    0.00000    0.00000    5.67700    2.37900 #  Ti
322     1    2   -0.82000    0.00000    3.78500    1.98000 #   O
323     1    3    0.00000    0.00000    1.89200    2.37900 #  Ti
324     1    2   -0.82000    0.00000    0.00000    1.98000 #   O
325     2    1    1.00000   -1.87400    5.67700   27.67000 #  Li
326     2    1    1.00000   -1.87400    5.67700   25.67600 #  Li
327     3    1    1.00000   -3.13900    5.67700   24.00100 #  Li
328     4    1    1.00000   -2.34800    5.67700   22.56600 #  Li
329     4    1    1.00000   -2.82300    5.67700   21.21000 #  Li
330     5    1    1.00000   -2.34800    5.67700   19.53500 #  Li
331     5    1    1.00000   -3.93000    5.67700   18.89700 #  Li
332     6    1    1.00000   -2.26900    5.67700   16.58400 #  Li
333     7    1    1.00000   -2.74400    5.67700   14.27100 #  Li
334     8    1    1.00000   -4.56200    5.67700   15.54800 #  Li
335     9    1    1.00000   -2.58600    5.67700   12.11800 #  Li
336     9    1    1.00000   -3.85100    5.67700   12.75600 #  Li
337    10    1    1.00000   -2.58600    5.67700    9.80500 #  Li
338    10    1    1.00000   -3.85100    5.67700   10.12400 #  Li
339    11    1    1.00000   -2.90200    5.67700    7.33300 #  Li
340    11    1    1.00000   -2.19000    5.67700    8.45000 #  Li
341    12    1    1.00000   -2.98100    5.67700    4.86100 #  Li
342    13    1    1.00000   -2.98100    5.67700    2.30900 #  Li
343    13    1    1.00000   -4.40400    5.67700    3.10600 #  Li
344    14    1    1.00000   -2.82300    5.67700    0.47500 #  Li


Bonds

1       2    1    2 # Ti: O
2       2    1   10 # Ti: O
3       2    4    2 # Ti: O
4       2    3    7 # Ti: O
5       2    3   11 # Ti: O
6       2    3    9 # Ti: O
7       2    3    6 # Ti: O
8       2    3   45 # Ti: O
9       2    3  115 # Ti: O
10      2    4   10 # Ti: O
11      2    4    7 # Ti: O
12      2    4   11 # Ti: O
13      2    4   38 # Ti: O
14      2    5    9 # Ti: O
15      2    5    6 # Ti: O
16      2    5   12 # Ti: O
17      2    5    8 # Ti: O
18      2    5  120 # Ti: O
19      2   41    6 # Ti: O
20      2   13    8 # Ti: O
21      2  121    8 # Ti: O
22      2   37   10 # Ti: O
23      2  112   11 # Ti: O
24      2   13   12 # Ti: O
25      2   13   22 # Ti: O
26      2   13   14 # Ti: O
27      2   16   14 # Ti: O
28      2   15   23 # Ti: O
29      2   15   19 # Ti: O
30      2   15   21 # Ti: O
31      2   15   18 # Ti: O
32      2   15   57 # Ti: O
33      2   15  127 # Ti: O
34      2   16   22 # Ti: O
35      2   16   23 # Ti: O
36      2   16   19 # Ti: O
37      2   16   50 # Ti: O
38      2   17   21 # Ti: O
39      2   17   18 # Ti: O
40      2   17   24 # Ti: O
41      2   17   20 # Ti: O
42      2   17  132 # Ti: O
43      2   53   18 # Ti: O
44      2   25   20 # Ti: O
45      2  133   20 # Ti: O
46      2   49   22 # Ti: O
47      2  124   23 # Ti: O
48      2   25   24 # Ti: O
49      2   25   34 # Ti: O
50      2   25   26 # Ti: O
51      2   28   26 # Ti: O
52      2   27   35 # Ti: O
53      2   27   31 # Ti: O
54      2   27   33 # Ti: O
55      2   27   30 # Ti: O
56      2   27   69 # Ti: O
57      2   27  139 # Ti: O
58      2   28   34 # Ti: O
59      2   28   35 # Ti: O
60      2   28   31 # Ti: O
61      2   28   62 # Ti: O
62      2   29   33 # Ti: O
63      2   29   30 # Ti: O
64      2   29   32 # Ti: O
65      2   29   36 # Ti: O
66      2   29  144 # Ti: O
67      2   65   30 # Ti: O
68      2   61   34 # Ti: O
69      2  136   35 # Ti: O
70      2   37   38 # Ti: O
71      2   37   46 # Ti: O
72      2   40   38 # Ti: O
73      2   39   45 # Ti: O
74      2   39   43 # Ti: O
75      2   39   47 # Ti: O
76      2   39   42 # Ti: O
77      2   39   81 # Ti: O
78      2   39  151 # Ti: O
79      2   40   46 # Ti: O
80      2   40   43 # Ti: O
81      2   40   47 # Ti: O
82      2   40   74 # Ti: O
83      2   41   45 # Ti: O
84      2   41   48 # Ti: O
85      2   41   44 # Ti: O
86      2   41   42 # Ti: O
87      2   41  156 # Ti: O
88      2   77   42 # Ti: O
89      2   49   44 # Ti: O
90      2  157   44 # Ti: O
91      2   73   46 # Ti: O
92      2  148   47 # Ti: O
93      2   49   48 # Ti: O
94      2   49   50 # Ti: O
95      2   49   58 # Ti: O
96      2   52   50 # Ti: O
97      2   51   57 # Ti: O
98      2   51   59 # Ti: O
99      2   51   55 # Ti: O
100     2   51   54 # Ti: O
101     2   51   93 # Ti: O
102     2   51  163 # Ti: O
103     2   52   58 # Ti: O
104     2   52   59 # Ti: O
105     2   52   55 # Ti: O
106     2   52   86 # Ti: O
107     2   53   57 # Ti: O
108     2   53   60 # Ti: O
109     2   53   56 # Ti: O
110     2   53   54 # Ti: O
111     2   53  168 # Ti: O
112     2   89   54 # Ti: O
113     2   61   56 # Ti: O
114     2  169   56 # Ti: O
115     2   85   58 # Ti: O
116     2  160   59 # Ti: O
117     2   61   60 # Ti: O
118     2   61   62 # Ti: O
119     2   61   70 # Ti: O
120     2   64   62 # Ti: O
121     2   63   69 # Ti: O
122     2   63   71 # Ti: O
123     2   63   67 # Ti: O
124     2   63   66 # Ti: O
125     2   63  105 # Ti: O
126     2   63  175 # Ti: O
127     2   64   70 # Ti: O
128     2   64   71 # Ti: O
129     2   64   67 # Ti: O
130     2   64   98 # Ti: O
131     2   65   69 # Ti: O
132     2   65   68 # Ti: O
133     2   65   72 # Ti: O
134     2   65   66 # Ti: O
135     2   65  180 # Ti: O
136     2  101   66 # Ti: O
137     2   97   70 # Ti: O
138     2  172   71 # Ti: O
139     2   73   74 # Ti: O
140     2   73   82 # Ti: O
141     2   76   74 # Ti: O
142     2   75   81 # Ti: O
143     2   75   79 # Ti: O
144     2   75   83 # Ti: O
145     2   75   78 # Ti: O
146     2   75  187 # Ti: O
147     2   76   82 # Ti: O
148     2   76   79 # Ti: O
149     2   76   83 # Ti: O
150     2   77   81 # Ti: O
151     2   77   84 # Ti: O
152     2   77   80 # Ti: O
153     2   77   78 # Ti: O
154     2   77  192 # Ti: O
155     2   85   80 # Ti: O
156     2  193   80 # Ti: O
157     2  184   83 # Ti: O
158     2   85   84 # Ti: O
159     2   85   86 # Ti: O
160     2   85   94 # Ti: O
161     2   88   86 # Ti: O
162     2   87   93 # Ti: O
163     2   87   95 # Ti: O
164     2   87   91 # Ti: O
165     2   87   90 # Ti: O
166     2   87  199 # Ti: O
167     2   88   94 # Ti: O
168     2   88   95 # Ti: O
169     2   88   91 # Ti: O
170     2   89   93 # Ti: O
171     2   89   96 # Ti: O
172     2   89   92 # Ti: O
173     2   89   90 # Ti: O
174     2   89  204 # Ti: O
175     2   97   92 # Ti: O
176     2  205   92 # Ti: O
177     2  196   95 # Ti: O
178     2   97   96 # Ti: O
179     2   97   98 # Ti: O
180     2   97  106 # Ti: O
181     2  100   98 # Ti: O
182     2   99  105 # Ti: O
183     2   99  107 # Ti: O
184     2   99  103 # Ti: O
185     2   99  102 # Ti: O
186     2   99  211 # Ti: O
187     2  100  106 # Ti: O
188     2  100  107 # Ti: O
189     2  100  103 # Ti: O
190     2  101  105 # Ti: O
191     2  101  104 # Ti: O
192     2  101  108 # Ti: O
193     2  101  102 # Ti: O
194     2  101  216 # Ti: O
195     2  208  107 # Ti: O
196     2  109  110 # Ti: O
197     2  109  118 # Ti: O
198     2  112  110 # Ti: O
199     2  111  115 # Ti: O
200     2  111  119 # Ti: O
201     2  111  117 # Ti: O
202     2  111  114 # Ti: O
203     2  111  153 # Ti: O
204     2  111  223 # Ti: O
205     2  112  118 # Ti: O
206     2  112  115 # Ti: O
207     2  112  146 # Ti: O
208     2  112  119 # Ti: O
209     2  113  120 # Ti: O
210     2  113  117 # Ti: O
211     2  113  114 # Ti: O
212     2  113  116 # Ti: O
213     2  113  228 # Ti: O
214     2  149  114 # Ti: O
215     2  121  116 # Ti: O
216     2  229  116 # Ti: O
217     2  145  118 # Ti: O
218     2  220  119 # Ti: O
219     2  121  120 # Ti: O
220     2  121  130 # Ti: O
221     2  121  122 # Ti: O
222     2  124  122 # Ti: O
223     2  123  127 # Ti: O
224     2  123  131 # Ti: O
225     2  123  129 # Ti: O
226     2  123  126 # Ti: O
227     2  123  165 # Ti: O
228     2  123  235 # Ti: O
229     2  124  130 # Ti: O
230     2  124  127 # Ti: O
231     2  124  158 # Ti: O
232     2  124  131 # Ti: O
233     2  125  132 # Ti: O
234     2  125  129 # Ti: O
235     2  125  126 # Ti: O
236     2  125  128 # Ti: O
237     2  125  240 # Ti: O
238     2  161  126 # Ti: O
239     2  133  128 # Ti: O
240     2  241  128 # Ti: O
241     2  157  130 # Ti: O
242     2  232  131 # Ti: O
243     2  133  132 # Ti: O
244     2  133  142 # Ti: O
245     2  133  134 # Ti: O
246     2  136  134 # Ti: O
247     2  135  139 # Ti: O
248     2  135  143 # Ti: O
249     2  135  141 # Ti: O
250     2  135  138 # Ti: O
251     2  135  177 # Ti: O
252     2  135  247 # Ti: O
253     2  136  142 # Ti: O
254     2  136  139 # Ti: O
255     2  136  170 # Ti: O
256     2  136  143 # Ti: O
257     2  137  144 # Ti: O
258     2  137  141 # Ti: O
259     2  137  138 # Ti: O
260     2  137  140 # Ti: O