LAMMPS data file generated by OpenBabel
647 atoms
897 bonds
2260 angles
5165 dihedrals
0 impropers
2 atom types
2 bond types
1 angle types
1 dihedral types
0 improper types
  -8.34721   30.63200 xlo xhi
  -8.34721   30.63200 ylo yhi
  -8.34721   30.63200 zlo zhi



Masses

1 12.0107 # C
2 6.941 # Li


Atoms

1       1    1    0.00000    0.00000    0.00000    0.00000 #   C
2       1    1    0.00000   -0.00001    1.41798    0.00000 #   C
3       1    1    0.00000    1.22800    2.12696    0.00000 #   C
4       1    1    0.00000    1.22799    3.54494    0.00000 #   C
5       1    1    0.00000    2.45600    4.25392    0.00000 #   C
6       1    1    0.00000    2.45599    5.67190    0.00000 #   C
7       1    1    0.00000    3.68400    6.38088    0.00000 #   C
8       1    1    0.00000    3.68399    7.79885    0.00000 #   C
9       1    1    0.00000    4.91200    8.50783    0.00000 #   C
10      1    1    0.00000    4.91199    9.92581    0.00000 #   C
11      1    1    0.00000    6.13999    7.79885    0.00000 #   C
12      1    1    0.00000    6.14000    6.38088    0.00000 #   C
13      1    1    0.00000    7.36799    5.67190    0.00000 #   C
14      1    1    0.00000    7.36800    4.25392    0.00000 #   C
15      1    1    0.00000    8.59599    3.54494    0.00000 #   C
16      1    1    0.00000    8.59600    2.12696    0.00000 #   C
17      1    1    0.00000    9.82399    1.41798    0.00000 #   C
18      1    1    0.00000    9.82400    0.00000    0.00000 #   C
19      1    1    0.00000    7.36799    1.41798    0.00000 #   C
20      1    1    0.00000    6.14000    2.12696    0.00000 #   C
21      1    1    0.00000    4.91199    1.41798    0.00000 #   C
22      1    1    0.00000    3.68400    2.12696    0.00000 #   C
23      1    1    0.00000    4.91200    0.00000    0.00000 #   C
24      1    1    0.00000    7.36800    0.00000    0.00000 #   C
25      1    1    0.00000    6.13999    3.54494    0.00000 #   C
26      1    1    0.00000    4.91200    4.25392    0.00000 #   C
27      1    1    0.00000    2.45600    8.50783    0.00000 #   C
28      1    1    0.00000    2.45599    9.92581    0.00000 #   C
29      1    1    0.00000    1.22799    7.79885    0.00000 #   C
30      1    1    0.00000    0.00000    8.50783    0.00000 #   C
31      1    1    0.00000   -0.00001    9.92581    0.00000 #   C
32      1    1    0.00000   -1.22801    7.79885    0.00000 #   C
33      1    1    0.00000   -2.45600    8.50783    0.00000 #   C
34      1    1    0.00000   -2.45601    9.92581    0.00000 #   C
35      1    1    0.00000   -3.68401    7.79885    0.00000 #   C
36      1    1    0.00000   -4.91200    8.50783    0.00000 #   C
37      1    1    0.00000   -4.91201    9.92581    0.00000 #   C
38      1    1    0.00000   -3.68400    6.38088    0.00000 #   C
39      1    1    0.00000   -2.45601    5.67190    0.00000 #   C
40      1    1    0.00000   -2.45600    4.25392    0.00000 #   C
41      1    1    0.00000   -1.22801    3.54494    0.00000 #   C
42      1    1    0.00000   -1.22800    6.38088    0.00000 #   C
43      1    1    0.00000   -0.00001    5.67190    0.00000 #   C
44      1    1    0.00000    4.91199    5.67190    0.00000 #   C
45      1    1    0.00000    1.22800    6.38088    0.00000 #   C
46      1    1    0.00000    3.68399    3.54494    0.00000 #   C
47      1    1    0.00000    0.00000    4.25392    0.00000 #   C
48      1    1    0.00000    2.45599    1.41798    0.00000 #   C
49      1    1    0.00000    2.45600    0.00000    0.00000 #   C
50      1    1    0.00000   -1.22800    2.12696    0.00000 #   C
51      2    1    0.00000   -1.22800    2.12696    3.34800 #   C
52      2    1    0.00000    0.00001    2.83594    3.34800 #   C
53      2    1    0.00000    1.22800    2.12696    3.34800 #   C
54      2    1    0.00000    2.45601    2.83594    3.34800 #   C
55      2    1    0.00000    3.68400    2.12696    3.34800 #   C
56      2    1    0.00000    4.91201    2.83594    3.34800 #   C
57      2    1    0.00000    4.91200    4.25392    3.34800 #   C
58      2    1    0.00000    6.14001    4.96290    3.34800 #   C
59      2    1    0.00000    7.36800    4.25392    3.34800 #   C
60      2    1    0.00000    8.59601    4.96290    3.34800 #   C
61      2    1    0.00000    7.36801    2.83594    3.34800 #   C
62      2    1    0.00000    8.59600    2.12696    3.34800 #   C
63      2    1    0.00000    9.82401    2.83594    3.34800 #   C
64      2    1    0.00000    8.59601    0.70898    3.34800 #   C
65      2    1    0.00000    9.82400    0.00000    3.34800 #   C
66      2    1    0.00000   11.05201    0.70898    3.34800 #   C
67      2    1    0.00000    7.36800    0.00000    3.34800 #   C
68      2    1    0.00000    6.14001    0.70898    3.34800 #   C
69      2    1    0.00000    4.91200    0.00000    3.34800 #   C
70      2    1    0.00000    8.59600    2.12696    3.34800 #   C
71      2    1    0.00000    7.36800    4.25392    3.34800 #   C
72      2    1    0.00000    6.14000    6.38088    3.34800 #   C
73      2    1    0.00000    7.36801    7.08985    3.34800 #   C
74      2    1    0.00000    4.91201    7.08985    3.34800 #   C
75      2    1    0.00000    4.91200    8.50783    3.34800 #   C
76      2    1    0.00000    6.14001    9.21681    3.34800 #   C
77      2    1    0.00000    3.68401    9.21681    3.34800 #   C
78      2    1    0.00000    3.68400   10.63479    3.34800 #   C
79      2    1    0.00000    2.45600    8.50783    3.34800 #   C
80      2    1    0.00000    1.22801    9.21681    3.34800 #   C
81      2    1    0.00000    1.22800   10.63479    3.34800 #   C
82      2    1    0.00000    0.00000    8.50783    3.34800 #   C
83      2    1    0.00000   -1.22799    9.21681    3.34800 #   C
84      2    1    0.00000   -1.22800   10.63479    3.34800 #   C
85      2    1    0.00000   -2.45600    8.50783    3.34800 #   C
86      2    1    0.00000   -3.68399    9.21681    3.34800 #   C
87      2    1    0.00000   -3.68400   10.63479    3.34800 #   C
88      2    1    0.00000   -4.91200    8.50783    3.34800 #   C
89      2    1    0.00000   -4.91200    8.50783    3.34800 #   C
90      2    1    0.00000   -2.45599    7.08985    3.34800 #   C
91      2    1    0.00000   -1.22800    6.38088    3.34800 #   C
92      2    1    0.00000   -1.22799    4.96290    3.34800 #   C
93      2    1    0.00000   -2.45600    4.25392    3.34800 #   C
94      2    1    0.00000   -2.45600    4.25392    3.34800 #   C
95      2    1    0.00000   -1.22800    6.38088    3.34800 #   C
96      2    1    0.00000   -3.68400    6.38088    3.34800 #   C
97      2    1    0.00000   -3.68400    6.38088    3.34800 #   C
98      2    1    0.00000   -2.45600    8.50783    3.34800 #   C
99      2    1    0.00000    0.00001    7.08985    3.34800 #   C
100     2    1    0.00000    1.22800    6.38088    3.34800 #   C
101     2    1    0.00000    1.22801    4.96290    3.34800 #   C
102     2    1    0.00000    1.22800    6.38088    3.34800 #   C
103     2    1    0.00000    0.00000    8.50783    3.34800 #   C
104     2    1    0.00000    2.45601    7.08985    3.34800 #   C
105     2    1    0.00000    2.45600    8.50783    3.34800 #   C
106     2    1    0.00000    4.91200    8.50783    3.34800 #   C
107     2    1    0.00000    3.68400    6.38088    3.34800 #   C
108     2    1    0.00000    3.68400    6.38088    3.34800 #   C
109     2    1    0.00000    6.14000    6.38088    3.34800 #   C
110     2    1    0.00000    3.68401    4.96290    3.34800 #   C
111     2    1    0.00000    4.91200    4.25392    3.34800 #   C
112     2    1    0.00000    6.14000    2.12696    3.34800 #   C
113     2    1    0.00000    6.14000    2.12696    3.34800 #   C
114     2    1    0.00000    3.68401    0.70898    3.34800 #   C
115     2    1    0.00000    2.45600    0.00000    3.34800 #   C
116     2    1    0.00000    3.68400    2.12696    3.34800 #   C
117     2    1    0.00000    2.45600    4.25392    3.34800 #   C
118     2    1    0.00000    2.45600    4.25392    3.34800 #   C
119     2    1    0.00000    1.22801    0.70898    3.34800 #   C
120     2    1    0.00000    0.00000    0.00000    3.34800 #   C
121     2    1    0.00000    1.22800    2.12696    3.34800 #   C
122     2    1    0.00000    0.00000    4.25392    3.34800 #   C
123     2    1    0.00000    0.00000    4.25392    3.34800 #   C
124     2    1    0.00000   -1.22800    2.12696    3.34800 #   C
125     3    1    0.00000    0.00000    0.00000    6.69600 #   C
126     3    1    0.00000   -0.00001    1.41798    6.69600 #   C
127     3    1    0.00000    1.22800    2.12696    6.69600 #   C
128     3    1    0.00000    1.22799    3.54494    6.69600 #   C
129     3    1    0.00000    2.45600    4.25392    6.69600 #   C
130     3    1    0.00000    2.45599    5.67190    6.69600 #   C
131     3    1    0.00000    3.68400    6.38088    6.69600 #   C
132     3    1    0.00000    3.68399    7.79885    6.69600 #   C
133     3    1    0.00000    4.91200    8.50783    6.69600 #   C
134     3    1    0.00000    4.91199    9.92581    6.69600 #   C
135     3    1    0.00000    6.13999    7.79885    6.69600 #   C
136     3    1    0.00000    6.14000    6.38088    6.69600 #   C
137     3    1    0.00000    7.36799    5.67190    6.69600 #   C
138     3    1    0.00000    7.36800    4.25392    6.69600 #   C
139     3    1    0.00000    8.59599    3.54494    6.69600 #   C
140     3    1    0.00000    8.59600    2.12696    6.69600 #   C
141     3    1    0.00000    9.82399    1.41798    6.69600 #   C
142     3    1    0.00000    9.82400    0.00000    6.69600 #   C
143     3    1    0.00000    7.36799    1.41798    6.69600 #   C
144     3    1    0.00000    6.14000    2.12696    6.69600 #   C
145     3    1    0.00000    4.91199    1.41798    6.69600 #   C
146     3    1    0.00000    3.68400    2.12696    6.69600 #   C
147     3    1    0.00000    4.91200    0.00000    6.69600 #   C
148     3    1    0.00000    7.36800    0.00000    6.69600 #   C
149     3    1    0.00000    6.13999    3.54494    6.69600 #   C
150     3    1    0.00000    4.91200    4.25392    6.69600 #   C
151     3    1    0.00000    2.45600    8.50783    6.69600 #   C
152     3    1    0.00000    2.45599    9.92581    6.69600 #   C
153     3    1    0.00000    1.22799    7.79885    6.69600 #   C
154     3    1    0.00000    0.00000    8.50783    6.69600 #   C
155     3    1    0.00000   -0.00001    9.92581    6.69600 #   C
156     3    1    0.00000   -1.22801    7.79885    6.69600 #   C
157     3    1    0.00000   -2.45600    8.50783    6.69600 #   C
158     3    1    0.00000   -2.45601    9.92581    6.69600 #   C
159     3    1    0.00000   -3.68401    7.79885    6.69600 #   C
160     3    1    0.00000   -4.91200    8.50783    6.69600 #   C
161     3    1    0.00000   -4.91201    9.92581    6.69600 #   C
162     3    1    0.00000   -3.68400    6.38088    6.69600 #   C
163     3    1    0.00000   -2.45601    5.67190    6.69600 #   C
164     3    1    0.00000   -2.45600    4.25392    6.69600 #   C
165     3    1    0.00000   -1.22801    3.54494    6.69600 #   C
166     3    1    0.00000   -1.22800    6.38088    6.69600 #   C
167     3    1    0.00000   -0.00001    5.67190    6.69600 #   C
168     3    1    0.00000    4.91199    5.67190    6.69600 #   C
169     3    1    0.00000    1.22800    6.38088    6.69600 #   C
170     3    1    0.00000    3.68399    3.54494    6.69600 #   C
171     3    1    0.00000    0.00000    4.25392    6.69600 #   C
172     3    1    0.00000    2.45599    1.41798    6.69600 #   C
173     3    1    0.00000    2.45600    0.00000    6.69600 #   C
174     3    1    0.00000   -1.22800    2.12696    6.69600 #   C
175     4    1    0.00000   -1.22800    2.12696   10.04400 #   C
176     4    1    0.00000    0.00001    2.83594   10.04400 #   C
177     4    1    0.00000    1.22800    2.12696   10.04400 #   C
178     4    1    0.00000    2.45601    2.83594   10.04400 #   C
179     4    1    0.00000    3.68400    2.12696   10.04400 #   C
180     4    1    0.00000    4.91201    2.83594   10.04400 #   C
181     4    1    0.00000    4.91200    4.25392   10.04400 #   C
182     4    1    0.00000    6.14001    4.96290   10.04400 #   C
183     4    1    0.00000    7.36800    4.25392   10.04400 #   C
184     4    1    0.00000    8.59601    4.96290   10.04400 #   C
185     4    1    0.00000    7.36801    2.83594   10.04400 #   C
186     4    1    0.00000    8.59600    2.12696   10.04400 #   C
187     4    1    0.00000    9.82401    2.83594   10.04400 #   C
188     4    1    0.00000    8.59601    0.70898   10.04400 #   C
189     4    1    0.00000    9.82400    0.00000   10.04400 #   C
190     4    1    0.00000   11.05201    0.70898   10.04400 #   C
191     4    1    0.00000    7.36800    0.00000   10.04400 #   C
192     4    1    0.00000    6.14001    0.70898   10.04400 #   C
193     4    1    0.00000    4.91200    0.00000   10.04400 #   C
194     4    1    0.00000    8.59600    2.12696   10.04400 #   C
195     4    1    0.00000    7.36800    4.25392   10.04400 #   C
196     4    1    0.00000    6.14000    6.38088   10.04400 #   C
197     4    1    0.00000    7.36801    7.08985   10.04400 #   C
198     4    1    0.00000    4.91201    7.08985   10.04400 #   C
199     4    1    0.00000    4.91200    8.50783   10.04400 #   C
200     4    1    0.00000    6.14001    9.21681   10.04400 #   C
201     4    1    0.00000    3.68401    9.21681   10.04400 #   C
202     4    1    0.00000    3.68400   10.63479   10.04400 #   C
203     4    1    0.00000    2.45600    8.50783   10.04400 #   C
204     4    1    0.00000    1.22801    9.21681   10.04400 #   C
205     4    1    0.00000    1.22800   10.63479   10.04400 #   C
206     4    1    0.00000    0.00000    8.50783   10.04400 #   C
207     4    1    0.00000   -1.22799    9.21681   10.04400 #   C
208     4    1    0.00000   -1.22800   10.63479   10.04400 #   C
209     4    1    0.00000   -2.45600    8.50783   10.04400 #   C
210     4    1    0.00000   -3.68399    9.21681   10.04400 #   C
211     4    1    0.00000   -3.68400   10.63479   10.04400 #   C
212     4    1    0.00000   -4.91200    8.50783   10.04400 #   C
213     4    1    0.00000   -4.91200    8.50783   10.04400 #   C
214     4    1    0.00000   -2.45599    7.08985   10.04400 #   C
215     4    1    0.00000   -1.22800    6.38088   10.04400 #   C
216     4    1    0.00000   -1.22799    4.96290   10.04400 #   C
217     4    1    0.00000   -2.45600    4.25392   10.04400 #   C
218     4    1    0.00000   -2.45600    4.25392   10.04400 #   C
219     4    1    0.00000   -1.22800    6.38088   10.04400 #   C
220     4    1    0.00000   -3.68400    6.38088   10.04400 #   C
221     4    1    0.00000   -3.68400    6.38088   10.04400 #   C
222     4    1    0.00000   -2.45600    8.50783   10.04400 #   C
223     4    1    0.00000    0.00001    7.08985   10.04400 #   C
224     4    1    0.00000    1.22800    6.38088   10.04400 #   C
225     4    1    0.00000    1.22801    4.96290   10.04400 #   C
226     4    1    0.00000    1.22800    6.38088   10.04400 #   C
227     4    1    0.00000    0.00000    8.50783   10.04400 #   C
228     4    1    0.00000    2.45601    7.08985   10.04400 #   C
229     4    1    0.00000    2.45600    8.50783   10.04400 #   C
230     4    1    0.00000    4.91200    8.50783   10.04400 #   C
231     4    1    0.00000    3.68400    6.38088   10.04400 #   C
232     4    1    0.00000    3.68400    6.38088   10.04400 #   C
233     4    1    0.00000    6.14000    6.38088   10.04400 #   C
234     4    1    0.00000    3.68401    4.96290   10.04400 #   C
235     4    1    0.00000    4.91200    4.25392   10.04400 #   C
236     4    1    0.00000    6.14000    2.12696   10.04400 #   C
237     4    1    0.00000    6.14000    2.12696   10.04400 #   C
238     4    1    0.00000    3.68401    0.70898   10.04400 #   C
239     4    1    0.00000    2.45600    0.00000   10.04400 #   C
240     4    1    0.00000    3.68400    2.12696   10.04400 #   C
241     4    1    0.00000    2.45600    4.25392   10.04400 #   C
242     4    1    0.00000    2.45600    4.25392   10.04400 #   C
243     4    1    0.00000    1.22801    0.70898   10.04400 #   C
244     4    1    0.00000    0.00000    0.00000   10.04400 #   C
245     4    1    0.00000    1.22800    2.12696   10.04400 #   C
246     4    1    0.00000    0.00000    4.25392   10.04400 #   C
247     4    1    0.00000    0.00000    4.25392   10.04400 #   C
248     4    1    0.00000   -1.22800    2.12696   10.04400 #   C
249     5    1    0.00000    0.00000    0.00000   13.39200 #   C
250     5    1    0.00000   -0.00001    1.41798   13.39200 #   C
251     5    1    0.00000    1.22800    2.12696   13.39200 #   C
252     5    1    0.00000    1.22799    3.54494   13.39200 #   C
253     5    1    0.00000    2.45600    4.25392   13.39200 #   C
254     5    1    0.00000    2.45599    5.67190   13.39200 #   C
255     5    1    0.00000    3.68400    6.38088   13.39200 #   C
256     5    1    0.00000    3.68399    7.79885   13.39200 #   C
257     5    1    0.00000    4.91200    8.50783   13.39200 #   C
258     5    1    0.00000    4.91199    9.92581   13.39200 #   C
259     5    1    0.00000    6.13999    7.79885   13.39200 #   C
260     5    1    0.00000    6.14000    6.38088   13.39200 #   C
261     5    1    0.00000    7.36799    5.67190   13.39200 #   C
262     5    1    0.00000    7.36800    4.25392   13.39200 #   C
263     5    1    0.00000    8.59599    3.54494   13.39200 #   C
264     5    1    0.00000    8.59600    2.12696   13.39200 #   C
265     5    1    0.00000    9.82399    1.41798   13.39200 #   C
266     5    1    0.00000    9.82400    0.00000   13.39200 #   C
267     5    1    0.00000    7.36799    1.41798   13.39200 #   C
268     5    1    0.00000    6.14000    2.12696   13.39200 #   C
269     5    1    0.00000    4.91199    1.41798   13.39200 #   C
270     5    1    0.00000    3.68400    2.12696   13.39200 #   C
271     5    1    0.00000    4.91200    0.00000   13.39200 #   C
272     5    1    0.00000    7.36800    0.00000   13.39200 #   C
273     5    1    0.00000    6.13999    3.54494   13.39200 #   C
274     5    1    0.00000    4.91200    4.25392   13.39200 #   C
275     5    1    0.00000    2.45600    8.50783   13.39200 #   C
276     5    1    0.00000    2.45599    9.92581   13.39200 #   C
277     5    1    0.00000    1.22799    7.79885   13.39200 #   C
278     5    1    0.00000    0.00000    8.50783   13.39200 #   C
279     5    1    0.00000   -0.00001    9.92581   13.39200 #   C
280     5    1    0.00000   -1.22801    7.79885   13.39200 #   C
281     5    1    0.00000   -2.45600    8.50783   13.39200 #   C
282     5    1    0.00000   -2.45601    9.92581   13.39200 #   C
283     5    1    0.00000   -3.68401    7.79885   13.39200 #   C
284     5    1    0.00000   -4.91200    8.50783   13.39200 #   C
285     5    1    0.00000   -4.91201    9.92581   13.39200 #   C
286     5    1    0.00000   -3.68400    6.38088   13.39200 #   C
287     5    1    0.00000   -2.45601    5.67190   13.39200 #   C
288     5    1    0.00000   -2.45600    4.25392   13.39200 #   C
289     5    1    0.00000   -1.22801    3.54494   13.39200 #   C
290     5    1    0.00000   -1.22800    6.38088   13.39200 #   C
291     5    1    0.00000   -0.00001    5.67190   13.39200 #   C
292     5    1    0.00000    4.91199    5.67190   13.39200 #   C
293     5    1    0.00000    1.22800    6.38088   13.39200 #   C
294     5    1    0.00000    3.68399    3.54494   13.39200 #   C
295     5    1    0.00000    0.00000    4.25392   13.39200 #   C
296     5    1    0.00000    2.45599    1.41798   13.39200 #   C
297     5    1    0.00000    2.45600    0.00000   13.39200 #   C
298     5    1    0.00000   -1.22800    2.12696   13.39200 #   C
299     6    1    0.00000   -1.22800    2.12696   16.74000 #   C
300     6    1    0.00000    0.00001    2.83594   16.74000 #   C
301     6    1    0.00000    1.22800    2.12696   16.74000 #   C
302     6    1    0.00000    2.45601    2.83594   16.74000 #   C
303     6    1    0.00000    3.68400    2.12696   16.74000 #   C
304     6    1    0.00000    4.91201    2.83594   16.74000 #   C
305     6    1    0.00000    4.91200    4.25392   16.74000 #   C
306     6    1    0.00000    6.14001    4.96290   16.74000 #   C
307     6    1    0.00000    7.36800    4.25392   16.74000 #   C
308     6    1    0.00000    8.59601    4.96290   16.74000 #   C
309     6    1    0.00000    7.36801    2.83594   16.74000 #   C
310     6    1    0.00000    8.59600    2.12696   16.74000 #   C
311     6    1    0.00000    9.82401    2.83594   16.74000 #   C
312     6    1    0.00000    8.59601    0.70898   16.74000 #   C
313     6    1    0.00000    9.82400    0.00000   16.74000 #   C
314     6    1    0.00000   11.05201    0.70898   16.74000 #   C
315     6    1    0.00000    7.36800    0.00000   16.74000 #   C
316     6    1    0.00000    6.14001    0.70898   16.74000 #   C
317     6    1    0.00000    4.91200    0.00000   16.74000 #   C
318     6    1    0.00000    8.59600    2.12696   16.74000 #   C
319     6    1    0.00000    7.36800    4.25392   16.74000 #   C
320     6    1    0.00000    6.14000    6.38088   16.74000 #   C
321     6    1    0.00000    7.36801    7.08985   16.74000 #   C
322     6    1    0.00000    4.91201    7.08985   16.74000 #   C
323     6    1    0.00000    4.91200    8.50783   16.74000 #   C
324     6    1    0.00000    6.14001    9.21681   16.74000 #   C
325     6    1    0.00000    3.68401    9.21681   16.74000 #   C
326     6    1    0.00000    3.68400   10.63479   16.74000 #   C
327     6    1    0.00000    2.45600    8.50783   16.74000 #   C
328     6    1    0.00000    1.22801    9.21681   16.74000 #   C
329     6    1    0.00000    1.22800   10.63479   16.74000 #   C
330     6    1    0.00000    0.00000    8.50783   16.74000 #   C
331     6    1    0.00000   -1.22799    9.21681   16.74000 #   C
332     6    1    0.00000   -1.22800   10.63479   16.74000 #   C
333     6    1    0.00000   -2.45600    8.50783   16.74000 #   C
334     6    1    0.00000   -3.68399    9.21681   16.74000 #   C
335     6    1    0.00000   -3.68400   10.63479   16.74000 #   C
336     6    1    0.00000   -4.91200    8.50783   16.74000 #   C
337     6    1    0.00000   -4.91200    8.50783   16.74000 #   C
338     6    1    0.00000   -2.45599    7.08985   16.74000 #   C
339     6    1    0.00000   -1.22800    6.38088   16.74000 #   C
340     6    1    0.00000   -1.22799    4.96290   16.74000 #   C
341     6    1    0.00000   -2.45600    4.25392   16.74000 #   C
342     6    1    0.00000   -2.45600    4.25392   16.74000 #   C
343     6    1    0.00000   -1.22800    6.38088   16.74000 #   C
344     6    1    0.00000   -3.68400    6.38088   16.74000 #   C
345     6    1    0.00000   -3.68400    6.38088   16.74000 #   C
346     6    1    0.00000   -2.45600    8.50783   16.74000 #   C
347     6    1    0.00000    0.00001    7.08985   16.74000 #   C
348     6    1    0.00000    1.22800    6.38088   16.74000 #   C
349     6    1    0.00000    1.22801    4.96290   16.74000 #   C
350     6    1    0.00000    1.22800    6.38088   16.74000 #   C
351     6    1    0.00000    0.00000    8.50783   16.74000 #   C
352     6    1    0.00000    2.45601    7.08985   16.74000 #   C
353     6    1    0.00000    2.45600    8.50783   16.74000 #   C
354     6    1    0.00000    4.91200    8.50783   16.74000 #   C
355     6    1    0.00000    3.68400    6.38088   16.74000 #   C
356     6    1    0.00000    3.68400    6.38088   16.74000 #   C
357     6    1    0.00000    6.14000    6.38088   16.74000 #   C
358     6    1    0.00000    3.68401    4.96290   16.74000 #   C
359     6    1    0.00000    4.91200    4.25392   16.74000 #   C
360     6    1    0.00000    6.14000    2.12696   16.74000 #   C
361     6    1    0.00000    6.14000    2.12696   16.74000 #   C
362     6    1    0.00000    3.68401    0.70898   16.74000 #   C
363     6    1    0.00000    2.45600    0.00000   16.74000 #   C
364     6    1    0.00000    3.68400    2.12696   16.74000 #   C
365     6    1    0.00000    2.45600    4.25392   16.74000 #   C
366     6    1    0.00000    2.45600    4.25392   16.74000 #   C
367     6    1    0.00000    1.22801    0.70898   16.74000 #   C
368     6    1    0.00000    0.00000    0.00000   16.74000 #   C
369     6    1    0.00000    1.22800    2.12696   16.74000 #   C
370     6    1    0.00000    0.00000    4.25392   16.74000 #   C
371     6    1    0.00000    0.00000    4.25392   16.74000 #   C
372     6    1    0.00000   -1.22800    2.12696   16.74000 #   C
373     7    1    0.00000    0.00000    0.00000   20.08800 #   C
374     7    1    0.00000   -0.00001    1.41798   20.08800 #   C
375     7    1    0.00000    1.22800    2.12696   20.08800 #   C
376     7    1    0.00000    1.22799    3.54494   20.08800 #   C
377     7    1    0.00000    2.45600    4.25392   20.08800 #   C
378     7    1    0.00000    2.45599    5.67190   20.08800 #   C
379     7    1    0.00000    3.68400    6.38088   20.08800 #   C
380     7    1    0.00000    3.68399    7.79885   20.08800 #   C
381     7    1    0.00000    4.91200    8.50783   20.08800 #   C
382     7    1    0.00000    4.91199    9.92581   20.08800 #   C
383     7    1    0.00000    6.13999    7.79885   20.08800 #   C
384     7    1    0.00000    6.14000    6.38088   20.08800 #   C
385     7    1    0.00000    7.36799    5.67190   20.08800 #   C
386     7    1    0.00000    7.36800    4.25392   20.08800 #   C
387     7    1    0.00000    8.59599    3.54494   20.08800 #   C
388     7    1    0.00000    8.59600    2.12696   20.08800 #   C
389     7    1    0.00000    9.82399    1.41798   20.08800 #   C
390     7    1    0.00000    9.82400    0.00000   20.08800 #   C
391     7    1    0.00000    7.36799    1.41798   20.08800 #   C
392     7    1    0.00000    6.14000    2.12696   20.08800 #   C
393     7    1    0.00000    4.91199    1.41798   20.08800 #   C
394     7    1    0.00000    3.68400    2.12696   20.08800 #   C
395     7    1    0.00000    4.91200    0.00000   20.08800 #   C
396     7    1    0.00000    7.36800    0.00000   20.08800 #   C
397     7    1    0.00000    6.13999    3.54494   20.08800 #   C
398     7    1    0.00000    4.91200    4.25392   20.08800 #   C
399     7    1    0.00000    2.45600    8.50783   20.08800 #   C
400     7    1    0.00000    2.45599    9.92581   20.08800 #   C
401     7    1    0.00000    1.22799    7.79885   20.08800 #   C
402     7    1    0.00000    0.00000    8.50783   20.08800 #   C
403     7    1    0.00000   -0.00001    9.92581   20.08800 #   C
404     7    1    0.00000   -1.22801    7.79885   20.08800 #   C
405     7    1    0.00000   -2.45600    8.50783   20.08800 #   C
406     7    1    0.00000   -2.45601    9.92581   20.08800 #   C
407     7    1    0.00000   -3.68401    7.79885   20.08800 #   C
408     7    1    0.00000   -4.91200    8.50783   20.08800 #   C
409     7    1    0.00000   -4.91201    9.92581   20.08800 #   C
410     7    1    0.00000   -3.68400    6.38088   20.08800 #   C
411     7    1    0.00000   -2.45601    5.67190   20.08800 #   C
412     7    1    0.00000   -2.45600    4.25392   20.08800 #   C
413     7    1    0.00000   -1.22801    3.54494   20.08800 #   C
414     7    1    0.00000   -1.22800    6.38088   20.08800 #   C
415     7    1    0.00000   -0.00001    5.67190   20.08800 #   C
416     7    1    0.00000    4.91199    5.67190   20.08800 #   C
417     7    1    0.00000    1.22800    6.38088   20.08800 #   C
418     7    1    0.00000    3.68399    3.54494   20.08800 #   C
419     7    1    0.00000    0.00000    4.25392   20.08800 #   C
420     7    1    0.00000    2.45599    1.41798   20.08800 #   C
421     7    1    0.00000    2.45600    0.00000   20.08800 #   C
422     7    1    0.00000   -1.22800    2.12696   20.08800 #   C
423     8    1    0.00000   -1.22800    2.12696   23.43600 #   C
424     8    1    0.00000    0.00001    2.83594   23.43600 #   C
425     8    1    0.00000    1.22800    2.12696   23.43600 #   C
426     8    1    0.00000    2.45601    2.83594   23.43600 #   C
427     8    1    0.00000    3.68400    2.12696   23.43600 #   C
428     8    1    0.00000    4.91201    2.83594   23.43600 #   C
429     8    1    0.00000    4.91200    4.25392   23.43600 #   C
430     8    1    0.00000    6.14001    4.96290   23.43600 #   C
431     8    1    0.00000    7.36800    4.25392   23.43600 #   C
432     8    1    0.00000    8.59601    4.96290   23.43600 #   C
433     8    1    0.00000    7.36801    2.83594   23.43600 #   C
434     8    1    0.00000    8.59600    2.12696   23.43600 #   C
435     8    1    0.00000    9.82401    2.83594   23.43600 #   C
436     8    1    0.00000    8.59601    0.70898   23.43600 #   C
437     8    1    0.00000    9.82400    0.00000   23.43600 #   C
438     8    1    0.00000   11.05201    0.70898   23.43600 #   C
439     8    1    0.00000    7.36800    0.00000   23.43600 #   C
440     8    1    0.00000    6.14001    0.70898   23.43600 #   C
441     8    1    0.00000    4.91200    0.00000   23.43600 #   C
442     8    1    0.00000    8.59600    2.12696   23.43600 #   C
443     8    1    0.00000    7.36800    4.25392   23.43600 #   C
444     8    1    0.00000    6.14000    6.38088   23.43600 #   C
445     8    1    0.00000    7.36801    7.08985   23.43600 #   C
446     8    1    0.00000    4.91201    7.08985   23.43600 #   C
447     8    1    0.00000    4.91200    8.50783   23.43600 #   C
448     8    1    0.00000    6.14001    9.21681   23.43600 #   C
449     8    1    0.00000    3.68401    9.21681   23.43600 #   C