LAMMPS data file generated by OpenBabel
155 atoms
169 bonds
355 angles
689 dihedrals
0 impropers
2 atom types
3 bond types
2 angle types
2 dihedral types
0 improper types
  -4.18400   19.11800 xlo xhi
  -4.18400   19.11800 ylo yhi
  -4.18400   19.11800 zlo zhi



Masses

1 12.0107 # C
2 6.941 # Li


Atoms

1       1    1    0.00000    0.00000    0.00000    0.00000 #   C
2       1    2    1.00000   -1.56000   -0.19100    0.62600 #  Li
3       1    1    0.00000   -0.00000    1.41800    0.00000 #   C
4       1    1    0.00000    1.22800    2.12700    0.00000 #   C
5       1    1    0.00000    1.22800    3.54500    0.00000 #   C
6       1    1    0.00000    2.45600    4.25400    0.00000 #   C
7       1    1    0.00000    2.45600    5.67200    0.00000 #   C
8       1    1    0.00000    3.68400    3.54500    0.00000 #   C
9       1    1    0.00000    3.68400    2.12700    0.00000 #   C
10      1    1    0.00000    4.91200    1.41800    0.00000 #   C
11      1    1    0.00000    4.91200    0.00000    0.00000 #   C
12      1    1    0.00000    0.00000    4.25400    0.00000 #   C
13      1    1    0.00000   -0.00000    5.67200    0.00000 #   C
14      1    1    0.00000   -1.22800    3.54500    0.00000 #   C
15      1    1    0.00000   -2.45600    4.25400    0.00000 #   C
16      1    1    0.00000   -2.45600    5.67200    0.00000 #   C
17      1    1    0.00000    2.45600    1.41800    0.00000 #   C
18      1    1    0.00000    2.45600    0.00000    0.00000 #   C
19      1    1    0.00000   -1.22800    2.12700    0.00000 #   C
20      2    1    0.00000   -1.22800    2.12700    3.34800 #   C
21      2    1    0.00000    0.00000    2.83600    3.34800 #   C
22      2    1    0.00000    1.22800    2.12700    3.34800 #   C
23      2    1    0.00000    2.45600    2.83600    3.34800 #   C
24      2    1    0.00000    3.68400    2.12700    3.34800 #   C
25      2    1    0.00000    4.91200    2.83600    3.34800 #   C
26      2    1    0.00000    3.68400    0.70900    3.34800 #   C
27      2    1    0.00000    4.91200    0.00000    3.34800 #   C
28      2    1    0.00000    6.14000    0.70900    3.34800 #   C
29      2    1    0.00000    2.45600    0.00000    3.34800 #   C
30      2    1    0.00000    3.68400    2.12700    3.34800 #   C
31      2    1    0.00000    2.45600    4.25400    3.34800 #   C
32      2    1    0.00000    3.68400    4.96300    3.34800 #   C
33      2    1    0.00000    1.22800    4.96300    3.34800 #   C
34      2    1    0.00000    1.22800    6.38100    3.34800 #   C
35      2    1    0.00000    2.45600    4.25400    3.34800 #   C
36      2    1    0.00000    1.22800    0.70900    3.34800 #   C
37      2    1    0.00000    0.00000    0.00000    3.34800 #   C
38      2    1    0.00000    1.22800    2.12700    3.34800 #   C
39      2    1    0.00000    0.00000    4.25400    3.34800 #   C
40      2    1    0.00000   -1.22800    4.96300    3.34800 #   C
41      2    1    0.00000   -1.22800    6.38100    3.34800 #   C
42      2    1    0.00000   -2.45600    4.25400    3.34800 #   C
43      2    1    0.00000   -2.45600    4.25400    3.34800 #   C
44      2    1    0.00000    0.00000    4.25400    3.34800 #   C
45      2    1    0.00000   -1.22800    2.12700    3.34800 #   C
46      3    1    0.00000    0.00000    0.00000    6.69600 #   C
47      3    1    0.00000   -0.00000    1.41800    6.69600 #   C
48      3    1    0.00000    1.22800    2.12700    6.69600 #   C
49      3    1    0.00000    1.22800    3.54500    6.69600 #   C
50      3    1    0.00000    2.45600    4.25400    6.69600 #   C
51      3    1    0.00000    2.45600    5.67200    6.69600 #   C
52      3    1    0.00000    3.68400    3.54500    6.69600 #   C
53      3    1    0.00000    3.68400    2.12700    6.69600 #   C
54      3    1    0.00000    4.91200    1.41800    6.69600 #   C
55      3    1    0.00000    4.91200    0.00000    6.69600 #   C
56      3    1    0.00000    0.00000    4.25400    6.69600 #   C
57      3    1    0.00000   -0.00000    5.67200    6.69600 #   C
58      3    1    0.00000   -1.22800    3.54500    6.69600 #   C
59      3    1    0.00000   -2.45600    4.25400    6.69600 #   C
60      3    1    0.00000   -2.45600    5.67200    6.69600 #   C
61      3    1    0.00000    2.45600    1.41800    6.69600 #   C
62      3    1    0.00000    2.45600    0.00000    6.69600 #   C
63      3    1    0.00000   -1.22800    2.12700    6.69600 #   C
64      4    1    0.00000   -1.22800    2.12700   10.04400 #   C
65      4    1    0.00000    0.00000    2.83600   10.04400 #   C
66      4    1    0.00000    1.22800    2.12700   10.04400 #   C
67      4    1    0.00000    2.45600    2.83600   10.04400 #   C
68      4    1    0.00000    3.68400    2.12700   10.04400 #   C
69      4    1    0.00000    4.91200    2.83600   10.04400 #   C
70      4    1    0.00000    3.68400    0.70900   10.04400 #   C
71      4    1    0.00000    4.91200    0.00000   10.04400 #   C
72      4    1    0.00000    6.14000    0.70900   10.04400 #   C
73      4    1    0.00000    2.45600    0.00000   10.04400 #   C
74      4    1    0.00000    3.68400    2.12700   10.04400 #   C
75      4    1    0.00000    2.45600    4.25400   10.04400 #   C
76      4    1    0.00000    3.68400    4.96300   10.04400 #   C
77      4    1    0.00000    1.22800    4.96300   10.04400 #   C
78      4    1    0.00000    1.22800    6.38100   10.04400 #   C
79      4    1    0.00000    2.45600    4.25400   10.04400 #   C
80      4    1    0.00000    1.22800    0.70900   10.04400 #   C
81      4    1    0.00000    0.00000    0.00000   10.04400 #   C
82      4    1    0.00000    1.22800    2.12700   10.04400 #   C
83      4    1    0.00000    0.00000    4.25400   10.04400 #   C
84      4    1    0.00000   -1.22800    4.96300   10.04400 #   C
85      4    1    0.00000   -1.22800    6.38100   10.04400 #   C
86      4    1    0.00000   -2.45600    4.25400   10.04400 #   C
87      4    1    0.00000   -2.45600    4.25400   10.04400 #   C
88      4    1    0.00000    0.00000    4.25400   10.04400 #   C
89      4    1    0.00000   -1.22800    2.12700   10.04400 #   C
90      5    1    0.00000    0.00000    0.00000   13.39200 #   C
91      5    1    0.00000   -0.00000    1.41800   13.39200 #   C
92      5    1    0.00000    1.22800    2.12700   13.39200 #   C
93      5    1    0.00000    1.22800    3.54500   13.39200 #   C
94      5    1    0.00000    2.45600    4.25400   13.39200 #   C
95      5    1    0.00000    2.45600    5.67200   13.39200 #   C
96      5    1    0.00000    3.68400    3.54500   13.39200 #   C
97      5    1    0.00000    3.68400    2.12700   13.39200 #   C
98      5    1    0.00000    4.91200    1.41800   13.39200 #   C
99      5    1    0.00000    4.91200    0.00000   13.39200 #   C
100     5    1    0.00000    0.00000    4.25400   13.39200 #   C
101     5    1    0.00000   -0.00000    5.67200   13.39200 #   C
102     5    1    0.00000   -1.22800    3.54500   13.39200 #   C
103     5    1    0.00000   -2.45600    4.25400   13.39200 #   C
104     5    1    0.00000   -2.45600    5.67200   13.39200 #   C
105     5    1    0.00000    2.45600    1.41800   13.39200 #   C
106     5    1    0.00000    2.45600    0.00000   13.39200 #   C
107     5    1    0.00000   -1.22800    2.12700   13.39200 #   C
108     6    1    0.00000   -1.22800    2.12700   16.74000 #   C
109     6    1    0.00000    0.00000    2.83600   16.74000 #   C
110     6    1    0.00000    1.22800    2.12700   16.74000 #   C
111     6    1    0.00000    2.45600    2.83600   16.74000 #   C
112     6    1    0.00000    3.68400    2.12700   16.74000 #   C
113     6    1    0.00000    4.91200    2.83600   16.74000 #   C
114     6    1    0.00000    3.68400    0.70900   16.74000 #   C
115     6    1    0.00000    4.91200    0.00000   16.74000 #   C
116     6    1    0.00000    6.14000    0.70900   16.74000 #   C
117     6    1    0.00000    2.45600    0.00000   16.74000 #   C
118     6    1    0.00000    3.68400    2.12700   16.74000 #   C
119     6    1    0.00000    2.45600    4.25400   16.74000 #   C
120     6    1    0.00000    3.68400    4.96300   16.74000 #   C
121     6    1    0.00000    1.22800    4.96300   16.74000 #   C
122     6    1    0.00000    1.22800    6.38100   16.74000 #   C
123     6    1    0.00000    2.45600    4.25400   16.74000 #   C
124     6    1    0.00000    1.22800    0.70900   16.74000 #   C
125     6    1    0.00000    0.00000    0.00000   16.74000 #   C
126     6    1    0.00000    1.22800    2.12700   16.74000 #   C
127     6    1    0.00000    0.00000    4.25400   16.74000 #   C
128     6    1    0.00000   -1.22800    4.96300   16.74000 #   C
129     6    1    0.00000   -1.22800    6.38100   16.74000 #   C
130     6    1    0.00000   -2.45600    4.25400   16.74000 #   C
131     6    1    0.00000   -2.45600    4.25400   16.74000 #   C
132     6    1    0.00000    0.00000    4.25400   16.74000 #   C
133     6    1    0.00000   -1.22800    2.12700   16.74000 #   C
134     7    1    0.00000   -3.68400    6.38100    3.34800 #   C
135     8    1    0.00000   -3.68400    6.38100   10.04400 #   C
136     9    1    0.00000   -3.68400    6.38100   16.74000 #   C
137    10    2    1.00000   -1.64900   -0.24300   17.38000 #  Li
138    10    2    1.00000   -2.62700   -0.80800   17.17400 #  Li
139    11    2    1.00000   -1.64900   -0.24300   16.14300 #  Li
140    11    2    1.00000   -1.60400   -0.21700   14.70000 #  Li
141    12    2    1.00000   -1.69300   -0.26800   13.10200 #  Li
142    13    2    1.00000   -1.69300   -0.26800   11.65800 #  Li
143    13    2    1.00000   -0.84800    0.21900   12.01900 #  Li
144    14    2    1.00000   -1.82600   -0.34500   10.00800 #  Li
145    15    2    1.00000   -1.69300   -0.26800    8.72000 #  Li
146    15    2    1.00000   -1.02600    0.11700    8.30700 #  Li
147    16    2    1.00000   -1.78200   -0.32000    7.12100 #  Li
148    17    2    1.00000   -1.73700   -0.29400    5.57500 #  Li
149    17    2    1.00000   -0.93700    0.16800    5.57500 #  Li
150    18    2    1.00000   -1.73700   -0.29400    3.97700 #  Li
151    18    2    1.00000   -1.73700   -0.29400    2.37900 #  Li
152    19    2    1.00000   -1.56000   -0.19100   18.61800 #  Li
153    20    2    1.00000   -2.93800   -0.98700   14.44200 #  Li
154    21    2    1.00000   -3.02700   -1.03900    5.52300 #  Li
155    22    2    1.00000   -3.20500   -1.14200   10.47200 #  Li


Bonds

1       1    1    2 #  C: C
2       1    2   16 #  C: C
3       1    2   61 #  C: C
4       1    3   19 #  C: C
5       1    4    5 #  C: C
6       1    4   48 #  C: C
7       1    4   50 #  C: C
8       1    4   65 #  C: C
9       1    6    7 #  C: C
10      1    7   21 #  C: C
11      1    7   66 #  C: C
12      1    8   24 #  C: C
13      1    9   10 #  C: C
14      1    9   53 #  C: C
15      1    9   55 #  C: C
16      1    9   70 #  C: C
17      1   11   12 #  C: C
18      1   12   26 #  C: C
19      1   12   71 #  C: C
20      1   13   29 #  C: C
21      1   14   15 #  C: C
22      1   14   58 #  C: C
23      1   14   60 #  C: C
24      1   14   75 #  C: C
25      1   16   17 #  C: C
26      1   17   31 #  C: C
27      1   17   76 #  C: C
28      1   18   34 #  C: C
29      1   19   20 #  C: C
30      1   19   63 #  C: C
31      1   19   80 #  C: C
32      1   19   48 #  C: C
33      1   19   65 #  C: C
34      1   21   22 #  C: C
35      1   22   36 #  C: C
36      1   22   81 #  C: C
37      1   23   39 #  C: C
38      1   24   25 #  C: C
39      1   24   68 #  C: C
40      1   24   85 #  C: C
41      1   24   53 #  C: C
42      1   24   70 #  C: C
43      1   26   27 #  C: C
44      1   27   41 #  C: C
45      1   27   86 #  C: C
46      1   28   44 #  C: C
47      1   29   30 #  C: C
48      1   29   73 #  C: C
49      1   29   90 #  C: C
50      1   29   58 #  C: C
51      1   29   75 #  C: C
52      1   31   32 #  C: C
53      1   34   35 #  C: C
54      1   34   63 #  C: C
55      1   34   80 #  C: C
56      1   34   78 #  C: C
57      1   36   37 #  C: C
58      1   39   40 #  C: C
59      1   39   68 #  C: C
60      1   39   85 #  C: C
61      1   39   83 #  C: C
62      1   41   42 #  C: C
63      1   44   45 #  C: C
64      1   44   73 #  C: C
65      1   44   90 #  C: C
66      1   44   88 #  C: C
67      1   46   47 #  C: C
68      1   47   61 #  C: C
69      1   47  106 #  C: C
70      1   48   64 #  C: C
71      1   49   50 #  C: C
72      1   49   93 #  C: C
73      1   49   95 #  C: C
74      1   49  110 #  C: C
75      1   51   52 #  C: C
76      1   52   66 #  C: C
77      1   52  111 #  C: C
78      1   53   69 #  C: C
79      1   54   55 #  C: C
80      1   54   98 #  C: C
81      1   54  100 #  C: C
82      1   54  115 #  C: C
83      1   56   57 #  C: C
84      1   57   71 #  C: C
85      1   57  116 #  C: C
86      1   58   74 #  C: C
87      1   59   60 #  C: C
88      1   59  103 #  C: C
89      1   59  105 #  C: C
90      1   59  120 #  C: C
91      1   61   62 #  C: C
92      1   62   76 #  C: C
93      1   62  121 #  C: C
94      1   63   79 #  C: C
95      1   64   65 #  C: C
96      1   64  108 #  C: C
97      1   64  125 #  C: C
98      1   64   93 #  C: C
99      1   64  110 #  C: C
100     1   66   67 #  C: C
101     1   67   81 #  C: C
102     1   67  126 #  C: C
103     1   68   84 #  C: C
104     1   69   70 #  C: C
105     1   69  113 #  C: C
106     1   69  130 #  C: C
107     1   69   98 #  C: C
108     1   69  115 #  C: C
109     1   71   72 #  C: C
110     1   72   86 #  C: C
111     1   72  131 #  C: C
112     1   73   89 #  C: C
113     1   74   75 #  C: C
114     1   74  118 #  C: C
115     1   74  135 #  C: C
116     1   74  103 #  C: C
117     1   74  120 #  C: C
118     1   76   77 #  C: C
119     1   79   80 #  C: C
120     1   79  108 #  C: C
121     1   79  125 #  C: C
122     1   79  123 #  C: C
123     1   81   82 #  C: C
124     1   84   85 #  C: C
125     1   84  113 #  C: C
126     1   84  130 #  C: C
127     1   84  128 #  C: C
128     1   86   87 #  C: C
129     1   89   90 #  C: C
130     1   89  118 #  C: C
131     1   89  135 #  C: C
132     1   89  133 #  C: C
133     1   91   92 #  C: C
134     1   92  106 #  C: C
135     1   93  109 #  C: C
136     1   94   95 #  C: C
137     1   96   97 #  C: C
138     1   97  111 #  C: C
139     1   98  114 #  C: C
140     1   99  100 #  C: C
141     1  101  102 #  C: C
142     1  102  116 #  C: C
143     1  103  119 #  C: C
144     1  104  105 #  C: C
145     1  106  107 #  C: C
146     1  107  121 #  C: C
147     1  108  124 #  C: C
148     1  109  110 #  C: C
149     1  111  112 #  C: C
150     1  112  126 #  C: C
151     1  113  129 #  C: C
152     1  114  115 #  C: C
153     1  116  117 #  C: C
154     1  117  131 #  C: C
155     1  118  134 #  C: C
156     1  119  120 #  C: C
157     1  121  122 #  C: C
158     1  124  125 #  C: C
159     1  126  127 #  C: C
160     1  129  130 #  C: C
161     1  131  132 #  C: C
162     1  134  135 #  C: C
163     2    1  147 #  C:Li
164     3  146  145 # Li:Li
165     3  144  153 # Li:Li
166     3  152  142 # Li:Li
167     3  140  151 # Li:Li
168     3  138  137 # Li:Li
169     3  149  136 # Li:Li


Angles

1       2    2    1  147 #  C: C:Li
2       1   16    2    1 #  C: C: C
3       1   61    2    1 #  C: C: C
4       1   61    2   16 #  C: C: C
5       1   48    4    5 #  C: C: C
6       1   50    4    5 #  C: C: C
7       1   65    4    5 #  C: C: C
8       1   50    4   48 #  C: C: C
9       1   65    4   48 #  C: C: C
10      1   65    4   50 #  C: C: C
11      1   21    7    6 #  C: C: C
12      1   66    7    6 #  C: C: C
13      1   66    7   21 #  C: C: C
14      1   53    9   10 #  C: C: C
15      1   55    9   10 #  C: C: C
16      1   70    9   10 #  C: C: C
17      1   55    9   53 #  C: C: C
18      1   70    9   53 #  C: C: C
19      1   70    9   55 #  C: C: C
20      1   26   12   11 #  C: C: C
21      1   71   12   11 #  C: C: C
22      1   71   12   26 #  C: C: C
23      1   58   14   15 #  C: C: C
24      1   60   14   15 #  C: C: C
25      1   75   14   15 #  C: C: C
26      1   60   14   58 #  C: C: C
27      1   75   14   58 #  C: C: C
28      1   75   14   60 #  C: C: C
29      1   17   16    2 #  C: C: C
30      1   31   17   16 #  C: C: C
31      1   76   17   16 #  C: C: C
32      1   76   17   31 #  C: C: C
33      1   20   19    3 #  C: C: C
34      1   63   19    3 #  C: C: C
35      1   80   19    3 #  C: C: C
36      1   48   19    3 #  C: C: C
37      1   65   19    3 #  C: C: C
38      1   63   19   20 #  C: C: C
39      1   80   19   20 #  C: C: C
40      1   48   19   20 #  C: C: C
41      1   65   19   20 #  C: C: C
42      1   80   19   63 #  C: C: C
43      1   63   19   48 #  C: C: C
44      1   65   19   63 #  C: C: C
45      1   80   19   48 #  C: C: C
46      1   80   19   65 #  C: C: C
47      1   65   19   48 #  C: C: C
48      1   22   21    7 #  C: C: C
49      1   36   22   21 #  C: C: C
50      1   81   22   21 #  C: C: C
51      1   81   22   36 #  C: C: C
52      1   25   24    8 #  C: C: C
53      1   68   24    8 #  C: C: C
54      1   85   24    8 #  C: C: C
55      1   53   24    8 #  C: C: C
56      1   70   24    8 #  C: C: C
57      1   68   24   25 #  C: C: C
58      1   85   24   25 #  C: C: C
59      1   53   24   25 #  C: C: C
60      1   70   24   25 #  C: C: C
61      1   85   24   68 #  C: C: C
62      1   68   24   53 #  C: C: C
63      1   70   24   68 #  C: C: C
64      1   85   24   53 #  C: C: C
65      1   85   24   70 #  C: C: C
66      1   70   24   53 #  C: C: C
67      1   27   26   12 #  C: C: C
68      1   41   27   26 #  C: C: C
69      1   86   27   26 #  C: C: C
70      1   86   27   41 #  C: C: C
71      1   30   29   13 #  C: C: C
72      1   73   29   13 #  C: C: C
73      1   90   29   13 #  C: C: C
74      1   58   29   13 #  C: C: C
75      1   75   29   13 #  C: C: C
76      1   73   29   30 #  C: C: C
77      1   90   29   30 #  C: C: C
78      1   58   29   30 #  C: C: C
79      1   75   29   30 #  C: C: C
80      1   90   29   73 #  C: C: C
81      1   73   29   58 #  C: C: C
82      1   75   29   73 #  C: C: C
83      1   90   29   58 #  C: C: C
84      1   90   29   75 #  C: C: C
85      1   75   29   58 #  C: C: C
86      1   32   31   17 #  C: C: C
87      1   35   34   18 #  C: C: C
88      1   63   34   18 #  C: C: C
89      1   80   34   18 #  C: C: C
90      1   78   34   18 #  C: C: C
91      1   63   34   35 #  C: C: C
92      1   80   34   35 #  C: C: C
93      1   78   34   35 #  C: C: C
94      1   80   34   63 #  C: C: C
95      1   78   34   63 #  C: C: C
96      1   80   34   78 #  C: C: C
97      1   37   36   22 #  C: C: C
98      1   40   39   23 #  C: C: C
99      1   68   39   23 #  C: C: C
100     1   85   39   23 #  C: C: C
101     1   83   39   23 #  C: C: C
102     1   68   39   40 #  C: C: C
103     1   85   39   40 #  C: C: C
104     1   83   39   40 #  C: C: C
105     1   85   39   68 #  C: C: C
106     1   83   39   68 #  C: C: C
107     1   85   39   83 #  C: C: C
108     1   42   41   27 #  C: C: C
109     1   45   44   28 #  C: C: C
110     1   73   44   28 #  C: C: C
111     1   90   44   28 #  C: C: C
112     1   88   44   28 #  C: C: C
113     1   73   44   45 #  C: C: C
114     1   90   44   45 #  C: C: C
115     1   88   44   45 #  C: C: C
116     1   90   44   73 #  C: C: C
117     1   88   44   73 #  C: C: C
118     1   90   44   88 #  C: C: C
119     1   61   47   46 #  C: C: C
120     1  106   47   46 #  C: C: C
121     1  106   47   61 #  C: C: C
122     1   19   48    4 #  C: C: C
123     1   64   48    4 #  C: C: C
124     1   64   48   19 #  C: C: C
125     1   93   49   50 #  C: C: C
126     1   95   49   50 #  C: C: C
127     1  110   49   50 #  C: C: C
128     1   95   49   93 #  C: C: C
129     1  110   49   93 #  C: C: C
130     1  110   49   95 #  C: C: C
131     1   49   50    4 #  C: C: C
132     1   66   52   51 #  C: C: C
133     1  111   52   51 #  C: C: C
134     1  111   52   66 #  C: C: C
135     1   24   53    9 #  C: C: C
136     1   69   53    9 #  C: C: C
137     1   69   53   24 #  C: C: C
138     1   98   54   55 #  C: C: C
139     1  100   54   55 #  C: C: C
140     1  115   54   55 #  C: C: C
141     1  100   54   98 #  C: C: C
142     1  115   54   98 #  C: C: C
143     1  115   54  100 #  C: C: C
144     1   54   55    9 #  C: C: C
145     1   71   57   56 #  C: C: C
146     1  116   57   56 #  C: C: C
147     1  116   57   71 #  C: C: C
148     1   29   58   14 #  C: C: C
149     1   74   58   14 #  C: C: C
150     1   74   58   29 #  C: C: C
151     1  103   59   60 #  C: C: C
152     1  105   59   60 #  C: C: C
153     1  120   59   60 #  C: C: C
154     1  105   59  103 #  C: C: C
155     1  120   59  103 #  C: C: C
156     1  120   59  105 #  C: C: C
157     1   59   60   14 #  C: C: C
158     1   47   61    2 #  C: C: C
159     1   62   61    2 #  C: C: C
160     1   62   61   47 #  C: C: C
161     1   76   62   61 #  C: C: C
162     1  121   62   61 #  C: C: C
163     1  121   62   76 #  C: C: C
164     1   34   63   19 #  C: C: C
165     1   79   63   19 #  C: C: C
166     1   79   63   34 #  C: C: C
167     1   65   64   48 #  C: C: C
168     1  108   64   48 #  C: C: C
169     1  125   64   48 #  C: C: C
170     1   93   64   48 #  C: C: C
171     1  110   64   48 #  C: C: C
172     1  108   64   65 #  C: C: C
173     1  125   64   65 #  C: C: C
174     1   93   64   65 #  C: C: C
175     1  110   64   65 #  C: C: C
176     1  125   64  108 #  C: C: C
177     1  108   64   93 #  C: C: C
178     1  110   64  108 #  C: C: C
179     1  125   64   93 #  C: C: C
180     1  125   64  110 #  C: C: C
181     1  110   64   93 #  C: C: C
182     1   19   65    4 #  C: C: C
183     1   64   65    4 #  C: C: C
184     1   64   65   19 #  C: C: C
185     1   52   66    7 #  C: C: C
186     1   67   66    7 #  C: C: C
187     1   67   66   52 #  C: C: C
188     1   81   67   66 #  C: C: C
189     1  126   67   66 #  C: C: C
190     1  126   67   81 #  C: C: C
191     1   39   68   24 #  C: C: C
192     1   84   68   24 #  C: C: C
193     1   84   68   39 #  C: C: C
194     1   70   69   53 #  C: C: C
195     1  113   69   53 #  C: C: C
196     1  130   69   53 #  C: C: C
197     1   98   69   53 #  C: C: C
198     1  115   69   53 #  C: C: C
199     1  113   69   70 #  C: C: C
200     1  130   69   70 #  C: C: C
201     1   98   69   70 #  C: C: C
202     1  115   69   70 #  C: C: C
203     1  130   69  113 #  C: C: C
204     1  113   69   98 #  C: C: C
205     1  115   69  113 #  C: C: C
206     1  130   69   98 #  C: C: C
207     1  130   69  115 #  C: C: C
208     1  115   69   98 #  C: C: C
209     1   24   70    9 #  C: C: C
210     1   69   70    9 #  C: C: C
211     1   69   70   24 #  C: C: C
212     1   57   71   12 #  C: C: C
213     1   72   71   12 #  C: C: C
214     1   72   71   57 #  C: C: C
215     1   86   72   71 #  C: C: C
216     1  131   72   71 #  C: C: C
217     1  131   72   86 #  C: C: C
218     1   44   73   29 #  C: C: C
219     1   89   73   29 #  C: C: C
220     1   89   73   44 #  C: C: C
221     1   75   74   58 #  C: C: C
222     1  118   74   58 #  C: C: C
223     1  135   74   58 #  C: C: C
224     1  103   74   58 #  C: C: C
225     1  120   74   58 #  C: C: C
226     1  118   74   75 #  C: C: C
227     1  135   74   75 #  C: C: C
228     1  103   74   75 #  C: C: C
229     1  120   74   75 #  C: C: C
230     1  135   74  118 #  C: C: C
231     1  118   74  103 #  C: C: C
232     1  120   74  118 #  C: C: C
233     1  135   74  103 #  C: C: C
234     1  135   74  120 #  C: C: C
235     1  120   74  103 #  C: C: C
236     1   29   75   14 #  C: C: C
237     1   74   75   14 #  C: C: C
238     1   74   75   29 #  C: C: C
239     1   62   76   17 #  C: C: C
240     1   77   76   17 #  C: C: C
241     1   77   76   62 #  C: C: C
242     1   80   79   63 #  C: C: C
243     1  108   79   63 #  C: C: C
244     1  125   79   63 #  C: C: C
245     1  123   79   63 #  C: C: C
246     1  108   79   80 #  C: C: C
247     1  125   79   80 #  C: C: C
248     1  123   79   80 #  C: C: C
249     1  125   79  108 #  C: C: C
250     1  123   79  108 #  C: C: C
251     1  125   79  123 #  C: C: C
252     1   34   80   19 #  C: C: C
253     1   79   80   19 #  C: C: C
254     1   79   80   34 #  C: C: C
255     1   67   81   22 #  C: C: C
256     1   82   81   22 #  C: C: C
257     1   82   81   67 #  C: C: C
258     1   85   84   68 #  C: C: C
259     1  113   84   68 #  C: C: C
260     1  130   84   68 #  C: C: C
261     1  128   84   68 #  C: C: C
262     1  113   84   85 #  C: C: C
263     1  130   84   85 #  C: C: C
264     1  128   84   85 #  C: C: C
265     1  130   84  113 #  C: C: C
266     1  128   84  113 #  C: C: C
267     1  130   84  128 #  C: C: C
268     1   39   85   24 #  C: C: C
269     1   84   85   24 #  C: C: C
270     1   84   85   39 #  C: C: C
271     1   72   86   27 #  C: C: C
272     1   87   86   27 #  C: C: C
273     1   87   86   72 #  C: C: C
274     1   90   89   73 #  C: C: C
275     1  118   89   73 #  C: C: C
276     1  135   89   73 #  C: C: C
277     1  133   89   73 #  C: C: C
278     1  118   89   90 #  C: C: C
279     1  135   89   90 #  C: C: C
280     1  133   89   90 #  C: C: C
281     1  135   89  118 #  C: C: C
282     1  133   89  118 #  C: C: C
283     1  135   89  133 #  C: C: C
284     1   44   90   29 #  C: C: C
285     1   89   90   29 #  C: C: C
286     1   89   90   44 #  C: C: C
287     1  106   92   91 #  C: C: C
288     1   64   93   49 #  C: C: C
289     1  109   93   49 #  C: C: C
290     1  109   93   64 #  C: C: C
291     1   94   95   49 #  C: C: C
292     1  111   97   96 #  C: C: C
293     1   69   98   54 #  C: C: C
294     1  114   98   54 #  C: C: C
295     1  114   98   69 #  C: C: C
296     1   99  100   54 #  C: C: C
297     1  116  102  101 #  C: C: C
298     1   74  103   59 #  C: C: C
299     1  119  103   59 #  C: C: C
300     1  119  103   74 #  C: C: C
301     1  104  105   59 #  C: C: C
302     1   92  106   47 #  C: C: C
303     1  107  106   47 #  C: C: C
304     1  107  106   92 #  C: C: C
305     1  121  107  106 #  C: C: C
306     1   79  108   64 #  C: C: C
307     1  124  108   64 #  C: C: C
308     1  124  108   79 #  C: C: C
309     1  110  109   93 #  C: C: C
310     1   64  110   49 #  C: C: C
311     1  109  110   49 #  C: C: C
312     1  109  110   64 #  C: C: C
313     1   97  111   52 #  C: C: C
314     1  112  111   52 #  C: C: C
315     1  112  111   97 #  C: C: C
316     1  126  112  111 #  C: C: C
317     1   84  113   69 #  C: C: C
318     1  129  113   69 #  C: C: C
319     1  129  113   84 #  C: C: C
320     1  115  114   98 #  C: C: C
321     1   69  115   54 #  C: C: C
322     1  114  115   54 #  C: C: C
323     1  114  115   69 #  C: C: C
324     1  102  116   57 #  C: C: C
325     1  117  116   57 #  C: C: C
326     1  117  116  102 #  C: C: C
327     1  131  117  116 #  C: C: C
328     1   89  118   74 #  C: C: C
329     1  134  118   74 #  C: C: C
330     1  134  118   89 #  C: C: C
331     1  120  119  103 #  C: C: C
332     1   74  120   59 #  C: C: C
333     1  119  120   59 #  C: C: C
334     1  119  120   74 #  C: C: C
335     1  107  121   62 #  C: C: C
336     1  122  121   62 #  C: C: C
337     1  122  121  107 #  C: C: C
338     1  125  124  108 #  C: C: C
339     1   79  125   64 #  C: C: C
340     1  124  125   64 #  C: C: C
341     1  124  125   79 #  C: C: C
342     1  112  126   67 #  C: C: C
343     1  127  126   67 #  C: C: C
344     1  127  126  112 #  C: C: C
345     1  130  129  113 #  C: C: C
346     1   84  130   69 #  C: C: C
347     1  129  130   69 #  C: C: C
348     1  129  130   84 #  C: C: C
349     1  117  131   72 #  C: C: C
350     1  132  131   72 #  C: C: C
351     1  132  131  117 #  C: C: C
352     1  135  134  118 #  C: C: C
353     1   89  135   74 #  C: C: C
354     1  134  135   74 #  C: C: C
355     1  134  135   89 #  C: C: C


Dihedrals

1       2   16    1    2  147 #  C: C: C:Li
2       2   61    1    2  147 #  C: C: C:Li
3       1   17    2   16    1 #  C: C: C: C
4       1   17    2   16   61 #  C: C: C: C
5       1   47    2   61    1 #  C: C: C: C
6       1   62    2   61    1 #  C: C: C: C
7       1   47    2   61   16 #  C: C: C: C
8       1   62    2   61   16 #  C: C: C: C
9       1   19    4   48    5 #  C: C: C: C
10      1   64    4   48    5 #  C: C: C: C
11      1   19    4   48   50 #  C: C: C: C
12      1   64    4   48   50 #  C: C: C: C
13      1   19    4   48   65 #  C: C: C: C
14      1   64    4   48   65 #  C: C: C: C
15      1   49    4   50    5 #  C: C: C: C
16      1   49    4   50   48 #  C: C: C: C
17      1   49    4   50   65 #  C: C: C: C
18      1   19    4   65    5 #  C: C: C: C
19      1   64    4   65    5 #  C: C: C: C
20      1   19    4   65   48 #  C: C: C: C
21      1   64    4   65   48 #  C: C: C: C
22      1   19    4   65   50 #  C: C: C: C
23      1   64    4   65   50 #  C: C: C: C
24      1   22    7   21    6 #  C: C: C: C
25      1   22    7   21   66 #  C: C: C: C
26      1   52    7   66    6 #  C: C: C: C
27      1   67    7   66    6 #  C: C: C: C
28      1   52    7   66   21 #  C: C: C: C
29      1   67    7   66   21 #  C: C: C: C
30      1   24    9   53   10 #  C: C: C: C
31      1   69    9   53   10 #  C: C: C: C
32      1   24    9   53   55 #  C: C: C: C
33      1   69    9   53   55 #  C: C: C: C
34      1   24    9   53   70 #  C: C: C: C
35      1   69    9   53   70 #  C: C: C: C
36      1   54    9   55   10 #  C: C: C: C
37      1   54    9   55   53 #  C: C: C: C
38      1   54    9   55   70 #  C: C: C: C
39      1   24    9   70   10 #  C: C: C: C
40      1   69    9   70   10 #  C: C: C: C
41      1   24    9   70   53 #  C: C: C: C
42      1   69    9   70   53 #  C: C: C: C
43      1   24    9   70   55 #  C: C: C: C
44      1   69    9   70   55 #  C: C: C: C
45      1   27   12   26   11 #  C: C: C: C
46      1   27   12   26   71 #  C: C: C: C
47      1   57   12   71   11 #  C: C: C: C