LAMMPS data file generated by OpenBabel
236 atoms
343 bonds
827 angles
2023 dihedrals
0 impropers
2 atom types
3 bond types
2 angle types
2 dihedral types
0 improper types
  -0.50000   19.02400 xlo xhi
  -0.50000   19.02400 ylo yhi
  -0.50000   19.02400 zlo zhi



Masses

1 6.941 # Li
2 28.0855 # Si


Atoms

1       1    2    0.00000    0.00000    0.00000    0.00000 #  Si
2       1    2    0.00000    1.35800    1.35800    1.35800 #  Si
3       1    2    0.00000    2.71500    0.00000    2.71500 #  Si
4       1    2    0.00000    4.07300    1.35800    4.07300 #  Si
5       1    2    0.00000    2.71500    2.71500    5.43100 #  Si
6       1    2    0.00000    4.07300    4.07300    6.78800 #  Si
7       1    2    0.00000    2.71500    5.43100    8.14600 #  Si
8       1    2    0.00000    4.07300    6.78800    9.50400 #  Si
9       1    2    0.00000    2.71500    8.14600   10.86100 #  Si
10      1    2    0.00000    4.07300    9.50400   12.21900 #  Si
11      1    2    0.00000    2.71500   10.86100   13.57700 #  Si
12      1    2    0.00000    4.07300   12.21900   14.93400 #  Si
13      1    2    0.00000    5.43100   13.57700   13.57700 #  Si
14      1    2    0.00000    6.78800   14.93400   14.93400 #  Si
15      1    2    0.00000    6.78800   12.21900   12.21900 #  Si
16      1    2    0.00000    8.14600   10.86100   13.57700 #  Si
17      1    2    0.00000    9.50400   12.21900   14.93400 #  Si
18      1    2    0.00000   10.86100   13.57700   13.57700 #  Si
19      1    2    0.00000   12.21900   14.93400   14.93400 #  Si
20      1    2    0.00000   12.21900   12.21900   12.21900 #  Si
21      1    2    0.00000   13.57700   10.86100   13.57700 #  Si
22      1    2    0.00000   14.93400   12.21900   14.93400 #  Si
23      1    2    0.00000   14.93400    9.50400   12.21900 #  Si
24      1    2    0.00000   13.57700    8.14600   10.86100 #  Si
25      1    2    0.00000   12.21900    6.78800   12.21900 #  Si
26      1    2    0.00000   13.57700    5.43100   13.57700 #  Si
27      1    2    0.00000   14.93400    6.78800   14.93400 #  Si
28      1    2    0.00000   14.93400    4.07300   12.21900 #  Si
29      1    2    0.00000   13.57700    2.71500   10.86100 #  Si
30      1    2    0.00000   12.21900    1.35800   12.21900 #  Si
31      1    2    0.00000   13.57700    0.00000   13.57700 #  Si
32      1    2    0.00000   14.93400    1.35800   14.93400 #  Si
33      1    2    0.00000   10.86100    2.71500   13.57700 #  Si
34      1    2    0.00000    9.50400    4.07300   12.21900 #  Si
35      1    2    0.00000    8.14600    5.43100   13.57700 #  Si
36      1    2    0.00000    9.50400    6.78800   14.93400 #  Si
37      1    2    0.00000    6.78800    6.78800   12.21900 #  Si
38      1    2    0.00000    8.14600    8.14600   10.86100 #  Si
39      1    2    0.00000    6.78800    9.50400    9.50400 #  Si
40      1    2    0.00000    8.14600   10.86100    8.14600 #  Si
41      1    2    0.00000    9.50400   12.21900    9.50400 #  Si
42      1    2    0.00000   10.86100   13.57700    8.14600 #  Si
43      1    2    0.00000   12.21900   14.93400    9.50400 #  Si
44      1    2    0.00000   12.21900   12.21900    6.78800 #  Si
45      1    2    0.00000   13.57700   10.86100    8.14600 #  Si
46      1    2    0.00000   14.93400   12.21900    9.50400 #  Si
47      1    2    0.00000   14.93400    9.50400    6.78800 #  Si
48      1    2    0.00000   13.57700    8.14600    5.43100 #  Si
49      1    2    0.00000   12.21900    6.78800    6.78800 #  Si
50      1    2    0.00000   13.57700    5.43100    8.14600 #  Si
51      1    2    0.00000   14.93400    4.07300    6.78800 #  Si
52      1    2    0.00000   13.57700    2.71500    5.43100 #  Si
53      1    2    0.00000   12.21900    1.35800    6.78800 #  Si
54      1    2    0.00000   13.57700    0.00000    8.14600 #  Si
55      1    2    0.00000   10.86100    2.71500    8.14600 #  Si
56      1    2    0.00000    9.50400    4.07300    6.78800 #  Si
57      1    2    0.00000    8.14600    5.43100    8.14600 #  Si
58      1    2    0.00000    6.78800    6.78800    6.78800 #  Si
59      1    2    0.00000    8.14600    8.14600    5.43100 #  Si
60      1    2    0.00000    6.78800    9.50400    4.07300 #  Si
61      1    2    0.00000    5.43100   10.86100    5.43100 #  Si
62      1    2    0.00000    4.07300   12.21900    4.07300 #  Si
63      1    2    0.00000    2.71500   13.57700    5.43100 #  Si
64      1    2    0.00000    1.35800   12.21900    6.78800 #  Si
65      1    2    0.00000    2.71500   10.86100    8.14600 #  Si
66      1    2    0.00000    4.07300   12.21900    9.50400 #  Si
67      1    2    0.00000    2.71500   13.57700   10.86100 #  Si
68      1    2    0.00000    1.35800   14.93400    9.50400 #  Si
69      1    2    0.00000    5.43100   13.57700    8.14600 #  Si
70      1    2    0.00000    6.78800   14.93400    9.50400 #  Si
71      1    2    0.00000    0.00000   13.57700    8.14600 #  Si
72      1    2    0.00000    0.00000   10.86100    5.43100 #  Si
73      1    2    0.00000    1.35800    9.50400    4.07300 #  Si
74      1    2    0.00000    2.71500    8.14600    5.43100 #  Si
75      1    2    0.00000    4.07300    6.78800    4.07300 #  Si
76      1    2    0.00000    2.71500    5.43100    2.71500 #  Si
77      1    2    0.00000    1.35800    6.78800    1.35800 #  Si
78      1    2    0.00000    2.71500    8.14600    0.00000 #  Si
79      1    2    0.00000    4.07300    9.50400    1.35800 #  Si
80      1    2    0.00000    5.43100   10.86100    0.00000 #  Si
81      1    2    0.00000    6.78800   12.21900    1.35800 #  Si
82      1    2    0.00000    8.14600   13.57700    0.00000 #  Si
83      1    2    0.00000    9.50400   14.93400    1.35800 #  Si
84      1    2    0.00000   10.86100   13.57700    2.71500 #  Si
85      1    2    0.00000   12.21900   14.93400    4.07300 #  Si
86      1    2    0.00000   12.21900   12.21900    1.35800 #  Si
87      1    2    0.00000   13.57700   10.86100    2.71500 #  Si
88      1    2    0.00000   14.93400   12.21900    4.07300 #  Si
89      1    2    0.00000   14.93400    9.50400    1.35800 #  Si
90      1    2    0.00000   13.57700    8.14600    0.00000 #  Si
91      1    2    0.00000   12.21900    6.78800    1.35800 #  Si
92      1    2    0.00000   13.57700    5.43100    2.71500 #  Si
93      1    2    0.00000   14.93400    4.07300    1.35800 #  Si
94      1    2    0.00000   13.57700    2.71500    0.00000 #  Si
95      1    2    0.00000   12.21900    1.35800    1.35800 #  Si
96      1    2    0.00000   13.57700    0.00000    2.71500 #  Si
97      1    2    0.00000   10.86100    2.71500    2.71500 #  Si
98      1    2    0.00000    9.50400    4.07300    1.35800 #  Si
99      1    2    0.00000    8.14600    5.43100    2.71500 #  Si
100     1    2    0.00000    6.78800    6.78800    1.35800 #  Si
101     1    2    0.00000    8.14600    8.14600    0.00000 #  Si
102     1    2    0.00000    9.50400    9.50400    1.35800 #  Si
103     1    2    0.00000    5.43100    5.43100    0.00000 #  Si
104     1    2    0.00000    6.78800    4.07300    4.07300 #  Si
105     1    2    0.00000    8.14600    2.71500    0.00000 #  Si
106     1    2    0.00000    6.78800    1.35800    1.35800 #  Si
107     1    2    0.00000    8.14600    0.00000    2.71500 #  Si
108     1    2    0.00000    5.43100    0.00000    0.00000 #  Si
109     1    2    0.00000    9.50400    1.35800    4.07300 #  Si
110     1    2    0.00000   10.86100    0.00000    0.00000 #  Si
111     1    2    0.00000   10.86100    8.14600    2.71500 #  Si
112     1    2    0.00000   10.86100    5.43100    0.00000 #  Si
113     1    2    0.00000   13.57700   13.57700    0.00000 #  Si
114     1    2    0.00000   14.93400   14.93400    1.35800 #  Si
115     1    2    0.00000   10.86100   10.86100    0.00000 #  Si
116     1    2    0.00000    9.50400   12.21900    4.07300 #  Si
117     1    2    0.00000    8.14600   13.57700    5.43100 #  Si
118     1    2    0.00000    6.78800   14.93400    4.07300 #  Si
119     1    2    0.00000    0.00000    5.43100    0.00000 #  Si
120     1    2    0.00000    4.07300    4.07300    1.35800 #  Si
121     1    2    0.00000    0.00000    8.14600    2.71500 #  Si
122     1    2    0.00000    4.07300   14.93400    6.78800 #  Si
123     1    2    0.00000    1.35800   14.93400    4.07300 #  Si
124     1    2    0.00000    0.00000   13.57700    2.71500 #  Si
125     1    2    0.00000    1.35800   12.21900    1.35800 #  Si
126     1    2    0.00000    2.71500   13.57700    0.00000 #  Si
127     1    2    0.00000    4.07300   14.93400    1.35800 #  Si
128     1    2    0.00000    0.00000   10.86100    0.00000 #  Si
129     1    2    0.00000    5.43100   13.57700    2.71500 #  Si
130     1    2    0.00000    2.71500   10.86100    2.71500 #  Si
131     1    2    0.00000    4.07300    9.50400    6.78800 #  Si
132     1    2    0.00000    8.14600   10.86100    2.71500 #  Si
133     1    2    0.00000    5.43100    8.14600    2.71500 #  Si
134     1    2    0.00000    9.50400    6.78800    4.07300 #  Si
135     1    2    0.00000    6.78800    4.07300    9.50400 #  Si
136     1    2    0.00000    8.14600    2.71500    5.43100 #  Si
137     1    2    0.00000    6.78800    1.35800    6.78800 #  Si
138     1    2    0.00000    8.14600    0.00000    8.14600 #  Si
139     1    2    0.00000    9.50400    1.35800    9.50400 #  Si
140     1    2    0.00000   10.86100    0.00000    5.43100 #  Si
141     1    2    0.00000   12.21900    4.07300    4.07300 #  Si
142     1    2    0.00000   14.93400    1.35800    4.07300 #  Si
143     1    1    1.00000   17.25200    2.55700    4.66000 #  Li
144     1    2    0.00000   10.86100    8.14600    8.14600 #  Si
145     1    2    0.00000   10.86100    5.43100    5.43100 #  Si
146     1    2    0.00000   12.21900    9.50400    4.07300 #  Si
147     1    2    0.00000   14.93400    6.78800    4.07300 #  Si
148     1    2    0.00000   13.57700   13.57700    5.43100 #  Si
149     1    2    0.00000   14.93400   14.93400    6.78800 #  Si
150     1    2    0.00000   10.86100   10.86100    5.43100 #  Si
151     1    2    0.00000    9.50400   14.93400    6.78800 #  Si
152     1    2    0.00000    6.78800   12.21900    6.78800 #  Si
153     1    2    0.00000    9.50400    9.50400    6.78800 #  Si
154     1    2    0.00000    9.50400    6.78800    9.50400 #  Si
155     1    2    0.00000    6.78800    4.07300   14.93400 #  Si
156     1    2    0.00000    5.43100    2.71500   13.57700 #  Si
157     1    2    0.00000    6.78800    1.35800   12.21900 #  Si
158     1    2    0.00000    8.14600    0.00000   13.57700 #  Si
159     1    2    0.00000    5.43100    0.00000   10.86100 #  Si
160     1    2    0.00000    4.07300    1.35800    9.50400 #  Si
161     1    2    0.00000    2.71500    2.71500   10.86100 #  Si
162     1    2    0.00000    1.35800    1.35800   12.21900 #  Si
163     1    2    0.00000    2.71500    0.00000   13.57700 #  Si
164     1    2    0.00000    0.00000    2.71500   13.57700 #  Si
165     1    2    0.00000    1.35800    4.07300   14.93400 #  Si
166     1    2    0.00000    2.71500    5.43100   13.57700 #  Si
167     1    2    0.00000    4.07300    6.78800   14.93400 #  Si
168     1    2    0.00000    0.00000    0.00000   10.86100 #  Si
169     1    2    0.00000    2.71500    0.00000    8.14600 #  Si
170     1    2    0.00000    4.07300    4.07300   12.21900 #  Si
171     1    2    0.00000    4.07300    1.35800   14.93400 #  Si
172     1    2    0.00000    8.14600    2.71500   10.86100 #  Si
173     1    2    0.00000    9.50400    1.35800   14.93400 #  Si
174     1    2    0.00000   10.86100    0.00000   10.86100 #  Si
175     1    2    0.00000   12.21900    4.07300    9.50400 #  Si
176     1    2    0.00000   14.93400    1.35800    9.50400 #  Si
177     1    2    0.00000   12.21900    4.07300   14.93400 #  Si
178     1    2    0.00000   10.86100    8.14600   13.57700 #  Si
179     1    2    0.00000   10.86100    5.43100   10.86100 #  Si
180     1    2    0.00000   12.21900    9.50400    9.50400 #  Si
181     1    2    0.00000   14.93400    6.78800    9.50400 #  Si
182     1    2    0.00000   12.21900    9.50400   14.93400 #  Si
183     1    2    0.00000   13.57700   13.57700   10.86100 #  Si
184     1    2    0.00000   14.93400   14.93400   12.21900 #  Si
185     1    2    0.00000   10.86100   10.86100   10.86100 #  Si
186     1    2    0.00000    9.50400   14.93400   12.21900 #  Si
187     1    2    0.00000    9.50400    9.50400   12.21900 #  Si
188     1    2    0.00000    6.78800    9.50400   14.93400 #  Si
189     1    2    0.00000    8.14600   13.57700   10.86100 #  Si
190     1    2    0.00000    4.07300   14.93400   12.21900 #  Si
191     1    2    0.00000    1.35800   12.21900   12.21900 #  Si
192     1    2    0.00000    0.00000   13.57700   13.57700 #  Si
193     1    2    0.00000    1.35800   14.93400   14.93400 #  Si
194     1    2    0.00000    0.00000   10.86100   10.86100 #  Si
195     1    2    0.00000    1.35800    9.50400   14.93400 #  Si
196     1    2    0.00000    0.00000    8.14600   13.57700 #  Si
197     1    2    0.00000    5.43100    8.14600   13.57700 #  Si
198     1    2    0.00000    5.43100   10.86100   10.86100 #  Si
199     1    2    0.00000    1.35800    6.78800   12.21900 #  Si
200     1    2    0.00000    0.00000    5.43100   10.86100 #  Si
201     1    2    0.00000    1.35800    9.50400    9.50400 #  Si
202     1    2    0.00000    0.00000    8.14600    8.14600 #  Si
203     1    2    0.00000    5.43100    5.43100   10.86100 #  Si
204     1    2    0.00000    5.43100    8.14600    8.14600 #  Si
205     1    2    0.00000    1.35800    6.78800    6.78800 #  Si
206     1    2    0.00000    0.00000    5.43100    5.43100 #  Si
207     1    2    0.00000    1.35800    4.07300    9.50400 #  Si
208     1    2    0.00000    0.00000    2.71500    8.14600 #  Si
209     1    2    0.00000    5.43100    2.71500    8.14600 #  Si
210     1    2    0.00000    5.43100    5.43100    5.43100 #  Si
211     1    2    0.00000    1.35800    1.35800    6.78800 #  Si
212     1    2    0.00000    0.00000    0.00000    5.43100 #  Si
213     1    2    0.00000    1.35800    4.07300    4.07300 #  Si
214     1    2    0.00000    5.43100    0.00000    5.43100 #  Si
215     1    2    0.00000    5.43100    2.71500    2.71500 #  Si
216     1    2    0.00000    2.71500    2.71500    0.00000 #  Si
217     1    2    0.00000    0.00000    2.71500    2.71500 #  Si
218     2    1    1.00000   17.17200    4.04600   13.13100 #  Li
219     2    1    1.00000   16.54800    4.35600   12.34100 #  Li
220     3    1    1.00000   17.32700    4.10100   11.16900 #  Li
221     3    1    1.00000   16.38900    4.50300   11.04800 #  Li
222     4    1    1.00000   17.30300    4.27500    8.51700 #  Li
223     4    1    1.00000   17.29200    4.39400    6.65900 #  Li
224     5    1    1.00000   17.34000    4.48900    4.78800 #  Li
225     6    1    1.00000   17.29700    4.63400    2.73800 #  Li
226     6    1    1.00000   17.38200    4.72300    0.72500 #  Li
227     7    1    1.00000   17.01700    3.99000   15.09300 #  Li
228     7    1    1.00000   18.39500    3.37600   15.64700 #  Li
229     8    1    1.00000   18.52400    3.43100   13.89100 #  Li
230     8    1    1.00000   18.46500    3.56500   12.11000 #  Li
231     9    1    1.00000   17.50100    6.00300    5.01600 #  Li
232     9    1    1.00000   17.42600    6.96800    5.16000 #  Li
233    10    1    1.00000   17.47800    8.00300    5.27400 #  Li
234    10    1    1.00000   17.39200    9.05900    5.43300 #  Li
235    11    1    1.00000   17.52000   10.20000    5.53700 #  Li
236    11    1    1.00000   17.56100   11.32600    5.66500 #  Li


Bonds

1       3    1    6 # Si:Si
2       3    2    6 # Si:Si
3       3    2    7 # Si:Si
4       3    3    6 # Si:Si
5       3    3    8 # Si:Si
6       3    4    6 # Si:Si
7       3    4    5 # Si:Si
8       3    5   74 # Si:Si
9       3    5   81 # Si:Si
10      3    5   11 # Si:Si
11      3    7   28 # Si:Si
12      3    7   33 # Si:Si
13      3    7   11 # Si:Si
14      3    8   97 # Si:Si
15      3    8   28 # Si:Si
16      3    8   74 # Si:Si
17      3    9   14 # Si:Si
18      3   10   14 # Si:Si
19      3   10   15 # Si:Si
20      3   11   14 # Si:Si
21      3   11   16 # Si:Si
22      3   12   14 # Si:Si
23      3   12   13 # Si:Si
24      3   13   82 # Si:Si
25      3   13   89 # Si:Si
26      3   13   19 # Si:Si
27      3   15   36 # Si:Si
28      3   15   41 # Si:Si
29      3   15   19 # Si:Si
30      3   16  105 # Si:Si
31      3   16   82 # Si:Si
32      3   16   36 # Si:Si
33      3   17   22 # Si:Si
34      3   18   22 # Si:Si
35      3   18   23 # Si:Si
36      3   19   22 # Si:Si
37      3   19   24 # Si:Si
38      3   20   22 # Si:Si
39      3   20   21 # Si:Si
40      3   21   90 # Si:Si
41      3   23   44 # Si:Si
42      3   24  113 # Si:Si
43      3   24   44 # Si:Si
44      3   24   90 # Si:Si
45      3   25   30 # Si:Si
46      3   26   30 # Si:Si
47      3   26   31 # Si:Si
48      3   27   30 # Si:Si
49      3   27   32 # Si:Si
50      3   28   30 # Si:Si
51      3   28   29 # Si:Si
52      3   29   98 # Si:Si
53      3   29   35 # Si:Si
54      3   29  105 # Si:Si
55      3   31   52 # Si:Si
56      3   31   35 # Si:Si
57      3   31   57 # Si:Si
58      3   32  121 # Si:Si
59      3   32   98 # Si:Si
60      3   32   52 # Si:Si
61      3   33   38 # Si:Si
62      3   34   38 # Si:Si
63      3   34   39 # Si:Si
64      3   35   40 # Si:Si
65      3   35   38 # Si:Si
66      3   36   38 # Si:Si
67      3   36   37 # Si:Si
68      3   37  106 # Si:Si
69      3   37  113 # Si:Si
70      3   37   43 # Si:Si
71      3   39   60 # Si:Si
72      3   39   65 # Si:Si
73      3   39   43 # Si:Si
74      3   40  129 # Si:Si
75      3   40  106 # Si:Si
76      3   40   60 # Si:Si
77      3   41   46 # Si:Si
78      3   42   46 # Si:Si
79      3   42   47 # Si:Si
80      3   43   46 # Si:Si
81      3   43   48 # Si:Si
82      3   44   46 # Si:Si
83      3   44   45 # Si:Si
84      3   45  114 # Si:Si
85      3   47   68 # Si:Si
86      3   48  137 # Si:Si
87      3   48  114 # Si:Si
88      3   48   68 # Si:Si
89      3   49   54 # Si:Si
90      3   50   54 # Si:Si
91      3   50   55 # Si:Si
92      3   51   56 # Si:Si
93      3   51   54 # Si:Si
94      3   52   54 # Si:Si
95      3   52   53 # Si:Si
96      3   53  122 # Si:Si
97      3   53   59 # Si:Si
98      3   53  129 # Si:Si
99      3   55   59 # Si:Si
100     3   56  122 # Si:Si
101     3   57   62 # Si:Si
102     3   58   62 # Si:Si
103     3   58   63 # Si:Si
104     3   59   64 # Si:Si
105     3   59   62 # Si:Si
106     3   60   62 # Si:Si
107     3   60   61 # Si:Si
108     3   61  130 # Si:Si
109     3   61  137 # Si:Si
110     3   61   67 # Si:Si
111     3   63   67 # Si:Si
112     3   64  130 # Si:Si
113     3   65   70 # Si:Si
114     3   66   70 # Si:Si
115     3   66   71 # Si:Si
116     3   67   72 # Si:Si
117     3   67   70 # Si:Si
118     3   68   70 # Si:Si
119     3   68   69 # Si:Si
120     3   69  138 # Si:Si
121     3   72  138 # Si:Si
122     3   73   78 # Si:Si
123     3   74   78 # Si:Si
124     3   74   79 # Si:Si
125     3   75   78 # Si:Si
126     3   75   80 # Si:Si
127     3   76   78 # Si:Si
128     3   76   77 # Si:Si
129     3   77  146 # Si:Si
130     3   77   83 # Si:Si
131     3   77  153 # Si:Si
132     3   79  100 # Si:Si
133     3   79   83 # Si:Si
134     3   79  105 # Si:Si
135     3   80  169 # Si:Si
136     3   80  100 # Si:Si
137     3   80  146 # Si:Si
138     3   81   86 # Si:Si
139     3   82   86 # Si:Si
140     3   82   87 # Si:Si
141     3   83   86 # Si:Si
142     3   83   88 # Si:Si
143     3   84   86 # Si:Si
144     3   84   85 # Si:Si
145     3   85  154 # Si:Si
146     3   85   91 # Si:Si
147     3   85  161 # Si:Si
148     3   87  108 # Si:Si
149     3   87   91 # Si:Si
150     3   87  113 # Si:Si
151     3   88  177 # Si:Si
152     3   88  108 # Si:Si
153     3   88  154 # Si:Si
154     3   89   94 # Si:Si
155     3   90   94 # Si:Si
156     3   90   95 # Si:Si
157     3   91   96 # Si:Si
158     3   91   94 # Si:Si
159     3   92   94 # Si:Si
160     3   92   93 # Si:Si
161     3   93  162 # Si:Si
162     3   95  116 # Si:Si
163     3   96  185 # Si:Si
164     3   96  116 # Si:Si
165     3   96  162 # Si:Si
166     3   97  102 # Si:Si
167     3   98  102 # Si:Si
168     3   98  103 # Si:Si
169     3   99  104 # Si:Si
170     3   99  102 # Si:Si
171     3  100  102 # Si:Si
172     3  100  101 # Si:Si
173     3  101  170 # Si:Si
174     3  101  177 # Si:Si
175     3  101  107 # Si:Si
176     3  103  124 # Si:Si
177     3  103  129 # Si:Si
178     3  103  107 # Si:Si
179     3  104  193 # Si:Si
180     3  104  170 # Si:Si
181     3  104  124 # Si:Si
182     3  105  110 # Si:Si
183     3  106  110 # Si:Si
184     3  106  111 # Si:Si
185     3  107  112 # Si:Si
186     3  107  110 # Si:Si
187     3  108  110 # Si:Si
188     3  108  109 # Si:Si
189     3  109  178 # Si:Si
190     3  109  185 # Si:Si
191     3  109  115 # Si:Si
192     3  111  132 # Si:Si
193     3  111  115 # Si:Si
194     3  111  137 # Si:Si
195     3  112  201 # Si:Si
196     3  112  132 # Si:Si
197     3  112  178 # Si:Si
198     3  113  118 # Si:Si
199     3  114  118 # Si:Si
200     3  114  119 # Si:Si
201     3  115  120 # Si:Si
202     3  115  118 # Si:Si
203     3  116  118 # Si:Si
204     3  116  117 # Si:Si
205     3  117  186 # Si:Si
206     3  119  140 # Si:Si
207     3  120  209 # Si:Si
208     3  120  186 # Si:Si
209     3  120  140 # Si:Si
210     3  121  126 # Si:Si
211     3  122  126 # Si:Si
212     3  122  127 # Si:Si
213     3  123  126 # Si:Si
214     3  123  128 # Si:Si
215     3  124  126 # Si:Si
216     3  124  125 # Si:Si
217     3  125  194 # Si:Si
218     3  125  131 # Si:Si
219     3  125  201 # Si:Si
220     3  127  131 # Si:Si
221     3  128  194 # Si:Si
222     3  129  134 # Si:Si
223     3  130  134 # Si:Si
224     3  130  135 # Si:Si
225     3  131  136 # Si:Si
226     3  131  134 # Si:Si
227     3  132  134 # Si:Si
228     3  132  133 # Si:Si
229     3  133  202 # Si:Si
230     3  133  139 # Si:Si
231     3  133  209 # Si:Si
232     3  135  139 # Si:Si
233     3  136  202 # Si:Si
234     3  137  142 # Si:Si
235     3  138  142 # Si:Si
236     3  138  143 # Si:Si
237     3  139  142 # Si:Si
238     3  139  144 # Si:Si
239     3  140  142 # Si:Si
240     3  140  141 # Si:Si
241     3  141  210 # Si:Si
242     3  144  210 # Si:Si
243     3  145  150 # Si:Si
244     3  146  150 # Si:Si
245     3  146  151 # Si:Si
246     3  147  150 # Si:Si
247     3  147  152 # Si:Si
248     3  148  150 # Si:Si
249     3  148  149 # Si:Si
250     3  149  155 # Si:Si
251     3  151  172 # Si:Si
252     3  151  177 # Si:Si
253     3  151  155 # Si:Si
254     3  152  172 # Si:Si
255     3  153  158 # Si:Si
256     3  154  158 # Si:Si
257     3  154  159 # Si:Si
258     3  155  160 # Si:Si
259     3  155  158 # Si:Si
260     3  156  158 # Si:Si
261     3  156  157 # Si:Si
262     3  157  163 # Si:Si
263     3  159  180 # Si:Si
264     3  159  185 # Si:Si
265     3  159  163 # Si:Si
266     3  160  180 # Si:Si
267     3  161  166 # Si:Si
268     3  162  166 # Si:Si
269     3  162  167 # Si:Si
270     3  163  166 # Si:Si
271     3  163  168 # Si:Si
272     3  164  166 # Si:Si
273     3  164  165 # Si:Si
274     3  167  188 # Si:Si
275     3  168  188 # Si:Si
276     3  169  174 # Si:Si
277     3  170  174 # Si:Si
278     3  170  175 # Si:Si
279     3  171  174 # Si:Si
280     3  171  176 # Si:Si
281     3  172  174 # Si:Si
282     3  172  173 # Si:Si
283     3  173  179 # Si:Si
284     3  175  196 # Si:Si
285     3  175  179 # Si:Si
286     3  175  201 # Si:Si
287     3  176  196 # Si:Si
288     3  177  182 # Si:Si
289     3  178  182 # Si:Si
290     3  178  183 # Si:Si
291     3  179  182 # Si:Si
292     3  179  184 # Si:Si
293     3  180  182 # Si:Si
294     3  180  181 # Si:Si
295     3  181  187 # Si:Si
296     3  183  204 # Si:Si
297     3  183  187 # Si:Si
298     3  183  209 # Si:Si
299     3  184  204 # Si:Si
300     3  185  190 # Si:Si
301     3  186  190 # Si:Si
302     3  186  191 # Si:Si
303     3  187  190 # Si:Si
304     3  187  192 # Si:Si
305     3  188  190 # Si:Si
306     3  188  189 # Si:Si
307     3  191  212 # Si:Si
308     3  192  212 # Si:Si
309     3  193  198 # Si:Si
310     3  194  198 # Si:Si
311     3  194  199 # Si:Si
312     3  195  198 # Si:Si
313     3  195  200 # Si:Si
314     3  196  198 # Si:Si
315     3  196  197 # Si:Si
316     3  197  203 # Si:Si
317     3  199  203 # Si:Si
318     3  201  206 # Si:Si
319     3  202  206 # Si:Si
320     3  202  207 # Si:Si
321     3  203  208 # Si:Si
322     3  203  206 # Si:Si
323     3  204  206 # Si:Si
324     3  204  205 # Si:Si
325     3  205  211 # Si:Si
326     3  207  211 # Si:Si
327     3  209  214 # Si:Si
328     3  210  214 # Si:Si
329     3  210  215 # Si:Si
330     3  211  214 # Si:Si
331     3  211  216 # Si:Si
332     3  212  214 # Si:Si
333     3  212  213 # Si:Si
334     1  223  222 # Li:Li
335     2  149  234 # Si:Li
336     1  230  231 # Li:Li
337     1  232  233 # Li:Li
338     1  235  236 # Li:Li
339     1  220  219 # Li:Li
340     1  225  218 # Li:Li
341     1  229  228 # Li:Li
342     1  224  217 # Li:Li
343     1  226  227 # Li:Li


Angles

1       2    7    2    6 # Si:Si:Si
2       2    8    3    6 # Si:Si:Si
3       2    6    4    5 # Si:Si:Si
4       2   74    5    4 # Si:Si:Si
5       2   81    5    4 # Si:Si:Si
6       2   11    5    4 # Si:Si:Si
7       2   81    5   74 # Si:Si:Si
8       2   74    5   11 # Si:Si:Si
9       2   81    5   11 # Si:Si:Si
10      2    2    6    1 # Si:Si:Si
11      2    3    6    1 # Si:Si:Si
12      2    4    6    1 # Si:Si:Si
13      2    3    6    2 # Si:Si:Si
14      2    4    6    2 # Si:Si:Si
15      2    4    6    3 # Si:Si:Si
16      2   28    7    2 # Si:Si:Si
17      2   33    7    2 # Si:Si:Si
18      2   11    7    2 # Si:Si:Si
19      2   33    7   28 # Si:Si:Si
20      2   28    7   11 # Si:Si:Si
21      2   33    7   11 # Si:Si:Si
22      2   97    8    3 # Si:Si:Si
23      2   28    8    3 # Si:Si:Si
24      2   74    8    3 # Si:Si:Si
25      2   97    8   28 # Si:Si:Si
26      2   97    8   74 # Si:Si:Si
27      2   74    8   28 # Si:Si:Si
28      2   15   10   14 # Si:Si:Si
29      2    7   11    5 # Si:Si:Si
30      2   14   11    5 # Si:Si:Si
31      2   16   11    5 # Si:Si:Si
32      2   14   11    7 # Si:Si:Si
33      2   16   11    7 # Si:Si:Si
34      2   16   11   14 # Si:Si:Si
35      2   14   12   13 # Si:Si:Si
36      2   82   13   12 # Si:Si:Si
37      2   89   13   12 # Si:Si:Si
38      2   19   13   12 # Si:Si:Si
39      2   89   13   82 # Si:Si:Si
40      2   82   13   19 # Si:Si:Si
41      2   89   13   19 # Si:Si:Si
42      2   10   14    9 # Si:Si:Si
43      2   11   14    9 # Si:Si:Si
44      2   12   14    9 # Si:Si:Si
45      2   11   14   10 # Si:Si:Si
46      2   12   14   10 # Si:Si:Si
47      2   12   14   11 # Si:Si:Si
48      2   36   15   10 # Si:Si:Si
49      2   41   15   10 # Si:Si:Si
50      2   19   15   10 # Si:Si:Si
51      2   41   15   36 # Si:Si:Si
52      2   36   15   19 # Si:Si:Si
53      2   41   15   19 # Si:Si:Si
54      2  105   16   11 # Si:Si:Si
55      2   82   16   11 # Si:Si:Si
56      2   36   16   11 # Si:Si:Si
57      2  105   16   82 # Si:Si:Si
58      2  105   16   36 # Si:Si:Si
59      2   82   16   36 # Si:Si:Si
60      2   23   18   22 # Si:Si:Si
61      2   15   19   13 # Si:Si:Si
62      2   22   19   13 # Si:Si:Si
63      2   24   19   13 # Si:Si:Si
64      2   22   19   15 # Si:Si:Si
65      2   24   19   15 # Si:Si:Si
66      2   24   19   22 # Si:Si:Si
67      2   22   20   21 # Si:Si:Si
68      2   90   21   20 # Si:Si:Si
69      2   18   22   17 # Si:Si:Si
70      2   19   22   17 # Si:Si:Si
71      2   20   22   17 # Si:Si:Si
72      2   19   22   18 # Si:Si:Si
73      2   20   22   18 # Si:Si:Si
74      2   20   22   19 # Si:Si:Si
75      2   44   23   18 # Si:Si:Si
76      2  113   24   19 # Si:Si:Si
77      2   44   24   19 # Si:Si:Si
78      2   90   24   19 # Si:Si:Si
79      2  113   24   44 # Si:Si:Si
80      2  113   24   90 # Si:Si:Si
81      2   90   24   44 # Si:Si:Si
82      2   31   26   30 # Si:Si:Si
83      2   32   27   30 # Si:Si:Si
84      2    8   28    7 # Si:Si:Si
85      2   30   28    7 # Si:Si:Si
86      2   29   28    7 # Si:Si:Si
87      2   30   28    8 # Si:Si:Si
88      2   29   28    8 # Si:Si:Si
89      2   30   28   29 # Si:Si:Si
90      2   98   29   28 # Si:Si:Si
91      2   35   29   28 # Si:Si:Si
92      2  105   29   28 # Si:Si:Si
93      2   98   29   35 # Si:Si:Si
94      2  105   29   98 # Si:Si:Si
95      2  105   29   35 # Si:Si:Si
96      2   26   30   25 # Si:Si:Si
97      2   27   30   25 # Si:Si:Si
98      2   28   30   25 # Si:Si:Si
99      2   27   30   26 # Si:Si:Si
100     2   28   30   26 # Si:Si:Si
101     2   28   30   27 # Si:Si:Si
102     2   52   31   26 # Si:Si:Si
103     2   35   31   26 # Si:Si:Si
104     2   57   31   26 # Si:Si:Si
105     2   52   31   35 # Si:Si:Si
106     2   57   31   52 # Si:Si:Si
107     2   57   31   35 # Si:Si:Si
108     2  121   32   27 # Si:Si:Si
109     2   98   32   27 # Si:Si:Si
110     2   52   32   27 # Si:Si:Si
111     2  121   32   98 # Si:Si:Si
112     2  121   32   52 # Si:Si:Si
113     2   98   32   52 # Si:Si:Si
114     2   38   33    7 # Si:Si:Si
115     2   39   34   38 # Si:Si:Si
116     2   31   35   29 # Si:Si:Si
117     2   40   35   29 # Si:Si:Si
118     2   38   35   29 # Si:Si:Si
119     2   40   35   31 # Si:Si:Si
120     2   38   35   31 # Si:Si:Si
121     2   40   35   38 # Si:Si:Si
122     2   16   36   15 # Si:Si:Si
123     2   38   36   15 # Si:Si:Si
124     2   37   36   15 # Si:Si:Si
125     2   38   36   16 # Si:Si:Si
126     2   37   36   16 # Si:Si:Si
127     2   38   36   37 # Si:Si:Si
128     2  106   37   36 # Si:Si:Si
129     2  113   37   36 # Si:Si:Si
130     2   43   37   36 # Si:Si:Si
131     2  113   37  106 # Si:Si:Si